     Message from routine get_command_line:
     unexpected argument # 2     :-i

     Program PWSCF v.7.0 starts on  1Jan2025 at  5:19: 4 

     This program is part of the open-source Quantum ESPRESSO suite
     for quantum simulation of materials; please cite
         "P. Giannozzi et al., J. Phys.:Condens. Matter 21 395502 (2009);
         "P. Giannozzi et al., J. Phys.:Condens. Matter 29 465901 (2017);
         "P. Giannozzi et al., J. Chem. Phys. 152 154105 (2020);
          URL http://www.quantum-espresso.org", 
     in publications or presentations arising from this work. More details at
     http://www.quantum-espresso.org/quote

     Parallel version (MPI), running on     1 processors

     MPI processes distributed on     1 nodes
     334 MiB available memory on the printing compute node when the environment starts

     Waiting for input...
     Reading input from standard input

     Current dimensions of program PWSCF are:
     Max number of different atomic species (ntypx) = 10
     Max number of k-points (npk) =  40000
     Max angular momentum in pseudopotentials (lmaxx) =  4
     file C.pz-rrkjus.UPF: wavefunction(s)  2S renormalized

     Subspace diagonalization in iterative solution of the eigenvalue problem:
     a serial algorithm will be used


     G-vector sticks info
     --------------------
     sticks:   dense  smooth     PW     G-vecs:    dense   smooth      PW
     Sum         163      61     31               156719    38823   10243

     Using Slab Decomposition



     bravais-lattice index     =            4
     lattice parameter (alat)  =       2.4600  a.u.
     unit-cell volume          =    1160.3218 (a.u.)^3
     number of atoms/cell      =            2
     number of atomic types    =            1
     number of electrons       =         8.00
     number of Kohn-Sham states=            8
     kinetic-energy cutoff     =      40.0000  Ry
     charge density cutoff     =     400.0000  Ry
     scf convergence threshold =      1.0E-08
     mixing beta               =       0.7000
     number of iterations used =            8  plain     mixing
     Exchange-correlation= SLA  PZ   NOGX NOGC
                           (   1   1   0   0   0   0   0)

     celldm(1)=   2.460000  celldm(2)=   0.000000  celldm(3)=  90.000000
     celldm(4)=   0.000000  celldm(5)=   0.000000  celldm(6)=   0.000000

     crystal axes: (cart. coord. in units of alat)
               a(1) = (   1.000000   0.000000   0.000000 )  
               a(2) = (  -0.500000   0.866025   0.000000 )  
               a(3) = (   0.000000   0.000000  90.000000 )  

     reciprocal axes: (cart. coord. in units 2 pi/alat)
               b(1) = (  1.000000  0.577350 -0.000000 )  
               b(2) = (  0.000000  1.154701  0.000000 )  
               b(3) = (  0.000000 -0.000000  0.011111 )  


     PseudoPot. # 1 for C  read from file:
     ./pseudo/C.pz-rrkjus.UPF
     MD5 check sum: b6daa4d29350031528385b7e2af80775
     Pseudo is Ultrasoft, Zval =  4.0
     Generated by new atomic code, or converted to UPF format
     Using radial grid of 1425 points,  4 beta functions with: 
                l(1) =   0
                l(2) =   0
                l(3) =   1
                l(4) =   1
     Q(r) pseudized with 0 coefficients 


     atomic species   valence    mass     pseudopotential
        C              4.00    12.01100     C ( 1.00)

      4 Sym. Ops. (no inversion) found



   Cartesian axes

     site n.     atom                  positions (alat units)
         1           C   tau(   1) = (   0.0000000   0.0000000   0.0000000  )
         2           C   tau(   2) = (   0.9448631   0.0000000   0.0000000  )

     number of k points=    13  Gaussian smearing, width (Ry)=  0.0100
                       cart. coord. in units 2pi/alat
        k(    1) = (   0.0000000   0.0000000   0.0000000), wk =   0.0555556
        k(    2) = (   0.0000000   0.1924501   0.0000000), wk =   0.1111111
        k(    3) = (   0.0000000   0.3849002   0.0000000), wk =   0.1111111
        k(    4) = (   0.0000000  -0.5773503   0.0000000), wk =   0.0555556
        k(    5) = (   0.1666667   0.2886751   0.0000000), wk =   0.2222222
        k(    6) = (   0.1666667   0.4811252   0.0000000), wk =   0.2222222
        k(    7) = (   0.3333333   0.5773503   0.0000000), wk =   0.1111111
        k(    8) = (  -0.1666667   0.0962250   0.0000000), wk =   0.2222222
        k(    9) = (  -0.3333333   0.1924501   0.0000000), wk =   0.2222222
        k(   10) = (   0.5000000  -0.2886751   0.0000000), wk =   0.1111111
        k(   11) = (   0.3333333   0.0000000   0.0000000), wk =   0.1111111
        k(   12) = (  -0.3333333   0.3849002   0.0000000), wk =   0.2222222
        k(   13) = (   0.5000000   0.0962250   0.0000000), wk =   0.2222222

     Dense  grid:   156719 G-vectors     FFT dimensions: (  15,  15,1440)

     Smooth grid:    38823 G-vectors     FFT dimensions: (   9,   9, 900)

     Estimated max dynamical RAM per process >     216.22 MB

     Initial potential from superposition of free atoms

     starting charge       7.9999, renormalised to       8.0000

     negative rho (up, down):  3.841E-05 0.000E+00
     Starting wfcs are    8 randomized atomic wfcs

     total cpu time spent up to now is        3.5 secs

     Self-consistent Calculation

     iteration #  1     ecut=    40.00 Ry     beta= 0.70
     Davidson diagonalization with overlap
     ethr =  1.00E-02,  avg # of iterations =  7.0

     negative rho (up, down):  9.715E-07 0.000E+00

     total cpu time spent up to now is        6.4 secs

     total energy              =     182.51366493 Ry
     estimated scf accuracy    <       8.74577400 Ry

     iteration #  2     ecut=    40.00 Ry     beta= 0.70
     Davidson diagonalization with overlap
     ethr =  1.00E-02,  avg # of iterations =  6.2

     total cpu time spent up to now is        8.7 secs

     total energy              =     183.44495047 Ry
     estimated scf accuracy    <       7.91162630 Ry

     iteration #  3     ecut=    40.00 Ry     beta= 0.70
     Davidson diagonalization with overlap
     ethr =  1.00E-02,  avg # of iterations =  5.8

     total cpu time spent up to now is       11.0 secs

     total energy              =     179.88396336 Ry
     estimated scf accuracy    <       0.83754463 Ry

     iteration #  4     ecut=    40.00 Ry     beta= 0.70
     Davidson diagonalization with overlap
     ethr =  1.00E-02,  avg # of iterations =  1.0

     total cpu time spent up to now is       12.4 secs

     total energy              =     179.98973222 Ry
     estimated scf accuracy    <       0.27561632 Ry

     iteration #  5     ecut=    40.00 Ry     beta= 0.70
     Davidson diagonalization with overlap
     ethr =  3.45E-03,  avg # of iterations =  2.2

     total cpu time spent up to now is       13.9 secs

     total energy              =     180.07088859 Ry
     estimated scf accuracy    <       0.11537721 Ry

     iteration #  6     ecut=    40.00 Ry     beta= 0.70
     Davidson diagonalization with overlap
     ethr =  1.44E-03,  avg # of iterations =  3.5

     total cpu time spent up to now is       15.8 secs

     total energy              =     180.06327312 Ry
     estimated scf accuracy    <       0.01483106 Ry

     iteration #  7     ecut=    40.00 Ry     beta= 0.70
     Davidson diagonalization with overlap
     ethr =  1.85E-04,  avg # of iterations =  2.3

     total cpu time spent up to now is       17.5 secs

     total energy              =     180.07757232 Ry
     estimated scf accuracy    <       0.01834269 Ry

     iteration #  8     ecut=    40.00 Ry     beta= 0.70
     Davidson diagonalization with overlap
     ethr =  1.85E-04,  avg # of iterations =  3.4

     total cpu time spent up to now is       19.1 secs

     total energy              =     180.07472426 Ry
     estimated scf accuracy    <       0.00389897 Ry

     iteration #  9     ecut=    40.00 Ry     beta= 0.70
     Davidson diagonalization with overlap
     ethr =  4.87E-05,  avg # of iterations =  1.6

     negative rho (up, down):  8.527E-07 0.000E+00

     total cpu time spent up to now is       20.3 secs

     total energy              =     180.07493153 Ry
     estimated scf accuracy    <       0.00460607 Ry

     iteration # 10     ecut=    40.00 Ry     beta= 0.70
     Davidson diagonalization with overlap
     ethr =  4.87E-05,  avg # of iterations =  3.5

     negative rho (up, down):  1.192E-06 0.000E+00

     total cpu time spent up to now is       21.8 secs

     total energy              =     180.07569647 Ry
     estimated scf accuracy    <       0.00534054 Ry

     iteration # 11     ecut=    40.00 Ry     beta= 0.70
     Davidson diagonalization with overlap
     ethr =  4.87E-05,  avg # of iterations =  1.0

     negative rho (up, down):  1.764E-05 0.000E+00

     total cpu time spent up to now is       23.0 secs

     total energy              =     180.07572357 Ry
     estimated scf accuracy    <       0.00197238 Ry

     iteration # 12     ecut=    40.00 Ry     beta= 0.70
     Davidson diagonalization with overlap
     ethr =  2.47E-05,  avg # of iterations =  3.9

     negative rho (up, down):  1.785E-05 0.000E+00

     total cpu time spent up to now is       24.7 secs

     total energy              =     180.07607803 Ry
     estimated scf accuracy    <       0.00128187 Ry

     iteration # 13     ecut=    40.00 Ry     beta= 0.70
     Davidson diagonalization with overlap
     ethr =  1.60E-05,  avg # of iterations =  2.0

     negative rho (up, down):  7.353E-06 0.000E+00

     total cpu time spent up to now is       26.1 secs

     total energy              =     180.07594420 Ry
     estimated scf accuracy    <       0.00001987 Ry

     iteration # 14     ecut=    40.00 Ry     beta= 0.70
     Davidson diagonalization with overlap
     ethr =  2.48E-07,  avg # of iterations =  4.8

     negative rho (up, down):  7.048E-06 0.000E+00

     total cpu time spent up to now is       28.9 secs

     total energy              =     180.07595655 Ry
     estimated scf accuracy    <       0.00005372 Ry

     iteration # 15     ecut=    40.00 Ry     beta= 0.70
     Davidson diagonalization with overlap
     ethr =  2.48E-07,  avg # of iterations =  1.5

     negative rho (up, down):  6.387E-06 0.000E+00

     total cpu time spent up to now is       30.1 secs

     total energy              =     180.07595185 Ry
     estimated scf accuracy    <       0.00000128 Ry

     iteration # 16     ecut=    40.00 Ry     beta= 0.70
     Davidson diagonalization with overlap
     ethr =  1.60E-08,  avg # of iterations =  2.3

     negative rho (up, down):  6.252E-06 0.000E+00

     total cpu time spent up to now is       31.6 secs

     total energy              =     180.07595145 Ry
     estimated scf accuracy    <       0.00000021 Ry

     iteration # 17     ecut=    40.00 Ry     beta= 0.70
     Davidson diagonalization with overlap
     ethr =  2.63E-09,  avg # of iterations =  1.8

     negative rho (up, down):  6.368E-06 0.000E+00

     total cpu time spent up to now is       33.1 secs

     total energy              =     180.07595143 Ry
     estimated scf accuracy    <       0.00000020 Ry

     iteration # 18     ecut=    40.00 Ry     beta= 0.70
     Davidson diagonalization with overlap
     ethr =  2.45E-09,  avg # of iterations =  1.0

     negative rho (up, down):  6.320E-06 0.000E+00

     total cpu time spent up to now is       34.8 secs

     total energy              =     180.07595119 Ry
     estimated scf accuracy    <       0.00000022 Ry

     iteration # 19     ecut=    40.00 Ry     beta= 0.70
     Davidson diagonalization with overlap
     ethr =  2.45E-09,  avg # of iterations =  1.0

     negative rho (up, down):  8.269E-06 0.000E+00

     total cpu time spent up to now is       36.0 secs

     total energy              =     180.07595147 Ry
     estimated scf accuracy    <       0.00000030 Ry

     iteration # 20     ecut=    40.00 Ry     beta= 0.70
     Davidson diagonalization with overlap
     ethr =  2.45E-09,  avg # of iterations =  2.2

     negative rho (up, down):  7.967E-06 0.000E+00

     total cpu time spent up to now is       37.7 secs

     total energy              =     180.07595139 Ry
     estimated scf accuracy    <       0.00000101 Ry

     iteration # 21     ecut=    40.00 Ry     beta= 0.70
     Davidson diagonalization with overlap
     ethr =  2.45E-09,  avg # of iterations =  1.0

     negative rho (up, down):  7.664E-06 0.000E+00

     total cpu time spent up to now is       38.9 secs

     total energy              =     180.07595146 Ry
     estimated scf accuracy    <       0.00000074 Ry

     iteration # 22     ecut=    40.00 Ry     beta= 0.70
     Davidson diagonalization with overlap
     ethr =  2.45E-09,  avg # of iterations =  1.0

     negative rho (up, down):  6.838E-06 0.000E+00

     total cpu time spent up to now is       40.3 secs

     total energy              =     180.07595141 Ry
     estimated scf accuracy    <       0.00000058 Ry

     iteration # 23     ecut=    40.00 Ry     beta= 0.70
     Davidson diagonalization with overlap
     ethr =  2.45E-09,  avg # of iterations =  1.1

     negative rho (up, down):  6.389E-06 0.000E+00

     total cpu time spent up to now is       41.4 secs

     total energy              =     180.07595148 Ry
     estimated scf accuracy    <       0.00000019 Ry

     iteration # 24     ecut=    40.00 Ry     beta= 0.70
     Davidson diagonalization with overlap
     ethr =  2.41E-09,  avg # of iterations =  1.2

     negative rho (up, down):  6.309E-06 0.000E+00

     total cpu time spent up to now is       42.6 secs

     total energy              =     180.07595148 Ry
     estimated scf accuracy    <       0.00000002 Ry

     iteration # 25     ecut=    40.00 Ry     beta= 0.70
     Davidson diagonalization with overlap
     ethr =  1.94E-10,  avg # of iterations =  2.2

     negative rho (up, down):  6.316E-06 0.000E+00

     total cpu time spent up to now is       44.0 secs

     End of self-consistent calculation

          k = 0.0000 0.0000 0.0000 (  5359 PWs)   bands (ev):

   -58.3690 -36.8137 -33.8662 -33.1177  -9.4155  -8.5405   0.1622   0.5403

          k = 0.0000 0.1925 0.0000 (  5174 PWs)   bands (ev):

   -56.1170 -53.2406 -35.5827 -20.7451  -5.9607  -2.8226   3.6724   3.7333

          k = 0.0000 0.3849 0.0000 (  4942 PWs)   bands (ev):

   -65.7028 -50.4672 -39.6886 -12.6492  -2.1968   1.5093  10.5227  12.5856

          k = 0.0000-0.5774 0.0000 (  4686 PWs)   bands (ev):

   -70.0489 -46.6039 -41.4538 -11.6067  -5.6220  12.7567  13.6096  18.2135

          k = 0.1667 0.2887 0.0000 (  5069 PWs)   bands (ev):

   -61.9344 -52.0968 -42.9528 -11.5799  -2.1966   6.8548   9.1944  10.8287

          k = 0.1667 0.4811 0.0000 (  4826 PWs)   bands (ev):

   -67.3426 -50.0148 -46.8153  -2.3489  -0.6149  11.2415  15.8021  20.8784

          k = 0.3333 0.5774 0.0000 (  4932 PWs)   bands (ev):

   -62.1774 -61.7627 -44.7575   3.5215   4.1612  13.9078  20.3614  20.3644

          k =-0.1667 0.0962 0.0000 (  5174 PWs)   bands (ev):

   -56.1102 -52.9606 -36.1813 -20.5567  -5.9650  -2.4645   3.6697   3.8327

          k =-0.3333 0.1925 0.0000 (  4942 PWs)   bands (ev):

   -65.3950 -50.4336 -40.3434 -12.4230  -2.3792   2.2963  10.3419  12.6748

          k = 0.5000-0.2887 0.0000 (  4686 PWs)   bands (ev):

   -69.7365 -46.5381 -42.1320 -11.1528  -6.0455  13.4882  13.6084  18.1702

          k = 0.3333 0.0000 0.0000 (  5069 PWs)   bands (ev):

   -61.6933 -52.0777 -43.3393 -11.5456  -2.2755   7.0616   9.1180  10.8528

          k =-0.3333 0.3849 0.0000 (  4826 PWs)   bands (ev):

   -67.0987 -50.3765 -46.7835  -2.6277  -0.5573  12.1444  15.6038  21.1836

          k = 0.5000 0.0962 0.0000 (  4826 PWs)   bands (ev):

   -67.0167 -50.4890 -46.7676  -2.8008  -0.5400  12.0176  15.8920  21.1287

     the Fermi energy is    -2.8125 ev

!    total energy              =     180.07595147 Ry
     estimated scf accuracy    <          5.1E-09 Ry
     smearing contrib. (-TS)   =      -0.00103407 Ry
     internal energy E=F+TS    =     180.07698554 Ry

     The total energy is F=E-TS. E is the sum of the following terms:
     one-electron contribution =   -5522.95642886 Ry
     hartree contribution      =    2756.23815705 Ry
     xc contribution           =     -10.91707305 Ry
     ewald contribution        =    2957.71233040 Ry

     convergence has been achieved in  25 iterations

     Forces acting on atoms (cartesian axes, Ry/au):

     atom    1 type  1   force =  1731.82117145    0.00000000    0.00000000
     atom    2 type  1   force = -1731.82117145   -0.00000000    0.00000000

     Total force =  2449.164988     Total SCF correction =     0.000000


     Computing stress (Cartesian axis) and pressure

          total   stress  (Ry/bohr**3)                   (kbar)     P=    10553.53
   0.20887316   0.00000000   0.00000000        30726.30        0.00        0.00
   0.00000000   0.00639137   0.00000000            0.00      940.20        0.00
   0.00000000  -0.00000000  -0.00004013            0.00       -0.00       -5.90


     Writing all to output data dir ./output/graphene/graphene.save/

     init_run     :      3.49s CPU      3.43s WALL (       1 calls)
     electrons    :     38.79s CPU     40.57s WALL (       1 calls)
     forces       :      0.53s CPU      0.52s WALL (       1 calls)
     stress       :      1.97s CPU      1.99s WALL (       1 calls)

     Called by init_run:
     wfcinit      :      0.93s CPU      0.90s WALL (       1 calls)
     potinit      :      0.84s CPU      0.82s WALL (       1 calls)
     hinit0       :      1.57s CPU      1.52s WALL (       1 calls)

     Called by electrons:
     c_bands      :     27.01s CPU     27.41s WALL (      25 calls)
     sum_band     :      7.64s CPU      8.76s WALL (      25 calls)
     v_of_rho     :      0.66s CPU      0.65s WALL (      26 calls)
     newd         :      2.59s CPU      2.90s WALL (      26 calls)
     mix_rho      :      0.66s CPU      0.65s WALL (      25 calls)

     Called by c_bands:
     init_us_2    :      1.28s CPU      1.25s WALL (     689 calls)
     init_us_2:cp :      1.28s CPU      1.25s WALL (     689 calls)
     cegterg      :     25.22s CPU     25.65s WALL (     325 calls)

     Called by *egterg:
     cdiaghg      :      0.12s CPU      0.12s WALL (    1164 calls)
     h_psi        :     19.56s CPU     20.06s WALL (    1177 calls)
     s_psi        :      1.23s CPU      1.20s WALL (    1177 calls)
     g_psi        :      0.26s CPU      0.26s WALL (     839 calls)

     Called by h_psi:
     h_psi:calbec :      1.22s CPU      1.20s WALL (    1177 calls)
     vloc_psi     :     16.78s CPU     17.35s WALL (    1177 calls)
     add_vuspsi   :      1.26s CPU      1.22s WALL (    1177 calls)

     General routines
     calbec       :      1.76s CPU      1.73s WALL (    1567 calls)
     fft          :      2.14s CPU      2.09s WALL (     159 calls)
     ffts         :      0.67s CPU      0.65s WALL (      51 calls)
     fftw         :     13.94s CPU     13.66s WALL (   15808 calls)
     interpolate  :      0.87s CPU      0.84s WALL (      26 calls)

     Parallel routines

     PWSCF        :     44.85s CPU     46.60s WALL


   This run was terminated on:   5:19:51   1Jan2025            

=------------------------------------------------------------------------------=
   JOB DONE.
=------------------------------------------------------------------------------=
