     Message from routine get_command_line:
     unexpected argument # 2     :-i

     Program PWSCF v.7.0 starts on  1Jan2025 at  5:55:18 

     This program is part of the open-source Quantum ESPRESSO suite
     for quantum simulation of materials; please cite
         "P. Giannozzi et al., J. Phys.:Condens. Matter 21 395502 (2009);
         "P. Giannozzi et al., J. Phys.:Condens. Matter 29 465901 (2017);
         "P. Giannozzi et al., J. Chem. Phys. 152 154105 (2020);
          URL http://www.quantum-espresso.org", 
     in publications or presentations arising from this work. More details at
     http://www.quantum-espresso.org/quote

     Parallel version (MPI), running on     4 processors

     MPI processes distributed on     1 nodes
     R & G space division:  proc/nbgrp/npool/nimage =       4
     340 MiB available memory on the printing compute node when the environment starts

     Waiting for input...
     Reading input from standard input

     Current dimensions of program PWSCF are:
     Max number of different atomic species (ntypx) = 10
     Max number of k-points (npk) =  40000
     Max angular momentum in pseudopotentials (lmaxx) =  4

     Subspace diagonalization in iterative solution of the eigenvalue problem:
     a serial algorithm will be used


     Parallelization info
     --------------------
     sticks:   dense  smooth     PW     G-vecs:    dense   smooth      PW
     Min         145     145     49                 2313     2313     451
     Max         146     146     50                 2316     2316     453
     Sum         583     583    199                 9257     9257    1807

     Using Slab Decomposition



     bravais-lattice index     =            2
     lattice parameter (alat)  =      10.2600  a.u.
     unit-cell volume          =     270.0114 (a.u.)^3
     number of atoms/cell      =            2
     number of atomic types    =            1
     number of electrons       =         8.00
     number of Kohn-Sham states=           20
     kinetic-energy cutoff     =      40.0000  Ry
     charge density cutoff     =     160.0000  Ry
     scf convergence threshold =      1.0E-06
     mixing beta               =       0.6000
     number of iterations used =            8  plain     mixing
     Exchange-correlation= SLA  PZ   NOGX NOGC
                           (   1   1   0   0   0   0   0)

     celldm(1)=  10.260000  celldm(2)=   0.000000  celldm(3)=   0.000000
     celldm(4)=   0.000000  celldm(5)=   0.000000  celldm(6)=   0.000000

     crystal axes: (cart. coord. in units of alat)
               a(1) = (  -0.500000   0.000000   0.500000 )  
               a(2) = (   0.000000   0.500000   0.500000 )  
               a(3) = (  -0.500000   0.500000   0.000000 )  

     reciprocal axes: (cart. coord. in units 2 pi/alat)
               b(1) = ( -1.000000 -1.000000  1.000000 )  
               b(2) = (  1.000000  1.000000  1.000000 )  
               b(3) = ( -1.000000  1.000000 -1.000000 )  


     PseudoPot. # 1 for Si read from file:
     ./pseudos/Si.pz-vbc.UPF
     MD5 check sum: 9f25e6ff280f3123e9b3a84715b2e9c9
     Pseudo is Norm-conserving, Zval =  4.0
     Generated by new atomic code, or converted to UPF format
     Using radial grid of  431 points,  2 beta functions with: 
                l(1) =   0
                l(2) =   1

     atomic species   valence    mass     pseudopotential
        Si             4.00    28.08600     Si( 1.00)

     No symmetry found


                                    s                        frac. trans.

      isym =  1     identity                                     

 cryst.   s( 1) = (     1          0          0      )
                  (     0          1          0      )
                  (     0          0          1      )

 cart.    s( 1) = (  1.0000000  0.0000000  0.0000000 )
                  (  0.0000000  1.0000000  0.0000000 )
                  (  0.0000000  0.0000000  1.0000000 )


     point group C_1 (1)    
     there are  1 classes
     the character table:

       E    
A      1.00

     the symmetry operations in each class and the name of the first element:

     E        1
          identity                                               

   Cartesian axes

     site n.     atom                  positions (alat units)
         1           Si  tau(   1) = (   0.0000000   0.0000000   0.0000000  )
         2           Si  tau(   2) = (   0.2500000   0.2500000   0.2500000  )

   Crystallographic axes

     site n.     atom                  positions (cryst. coord.)
         1           Si  tau(   1) = (  0.0000000  0.0000000  0.0000000  )
         2           Si  tau(   2) = ( -0.2500000  0.7500000 -0.2500000  )

     number of k points=   216
                       cart. coord. in units 2pi/alat
        k(    1) = (   0.0000000   0.0000000   0.0000000), wk =   0.0092593
        k(    2) = (  -0.1666667   0.1666667  -0.1666667), wk =   0.0092593
        k(    3) = (  -0.3333333   0.3333333  -0.3333333), wk =   0.0092593
        k(    4) = (  -0.5000000   0.5000000  -0.5000000), wk =   0.0092593
        k(    5) = (  -0.6666667   0.6666667  -0.6666667), wk =   0.0092593
        k(    6) = (  -0.8333333   0.8333333  -0.8333333), wk =   0.0092593
        k(    7) = (   0.1666667   0.1666667   0.1666667), wk =   0.0092593
        k(    8) = (   0.0000000   0.3333333   0.0000000), wk =   0.0092593
        k(    9) = (  -0.1666667   0.5000000  -0.1666667), wk =   0.0092593
        k(   10) = (  -0.3333333   0.6666667  -0.3333333), wk =   0.0092593
        k(   11) = (  -0.5000000   0.8333333  -0.5000000), wk =   0.0092593
        k(   12) = (  -0.6666667   1.0000000  -0.6666667), wk =   0.0092593
        k(   13) = (   0.3333333   0.3333333   0.3333333), wk =   0.0092593
        k(   14) = (   0.1666667   0.5000000   0.1666667), wk =   0.0092593
        k(   15) = (   0.0000000   0.6666667   0.0000000), wk =   0.0092593
        k(   16) = (  -0.1666667   0.8333333  -0.1666667), wk =   0.0092593
        k(   17) = (  -0.3333333   1.0000000  -0.3333333), wk =   0.0092593
        k(   18) = (  -0.5000000   1.1666667  -0.5000000), wk =   0.0092593
        k(   19) = (   0.5000000   0.5000000   0.5000000), wk =   0.0092593
        k(   20) = (   0.3333333   0.6666667   0.3333333), wk =   0.0092593
        k(   21) = (   0.1666667   0.8333333   0.1666667), wk =   0.0092593
        k(   22) = (   0.0000000   1.0000000   0.0000000), wk =   0.0092593
        k(   23) = (  -0.1666667   1.1666667  -0.1666667), wk =   0.0092593
        k(   24) = (  -0.3333333   1.3333333  -0.3333333), wk =   0.0092593
        k(   25) = (   0.6666667   0.6666667   0.6666667), wk =   0.0092593
        k(   26) = (   0.5000000   0.8333333   0.5000000), wk =   0.0092593
        k(   27) = (   0.3333333   1.0000000   0.3333333), wk =   0.0092593
        k(   28) = (   0.1666667   1.1666667   0.1666667), wk =   0.0092593
        k(   29) = (   0.0000000   1.3333333   0.0000000), wk =   0.0092593
        k(   30) = (  -0.1666667   1.5000000  -0.1666667), wk =   0.0092593
        k(   31) = (   0.8333333   0.8333333   0.8333333), wk =   0.0092593
        k(   32) = (   0.6666667   1.0000000   0.6666667), wk =   0.0092593
        k(   33) = (   0.5000000   1.1666667   0.5000000), wk =   0.0092593
        k(   34) = (   0.3333333   1.3333333   0.3333333), wk =   0.0092593
        k(   35) = (   0.1666667   1.5000000   0.1666667), wk =   0.0092593
        k(   36) = (   0.0000000   1.6666667   0.0000000), wk =   0.0092593
        k(   37) = (  -0.1666667  -0.1666667   0.1666667), wk =   0.0092593
        k(   38) = (  -0.3333333   0.0000000   0.0000000), wk =   0.0092593
        k(   39) = (  -0.5000000   0.1666667  -0.1666667), wk =   0.0092593
        k(   40) = (  -0.6666667   0.3333333  -0.3333333), wk =   0.0092593
        k(   41) = (  -0.8333333   0.5000000  -0.5000000), wk =   0.0092593
        k(   42) = (  -1.0000000   0.6666667  -0.6666667), wk =   0.0092593
        k(   43) = (   0.0000000   0.0000000   0.3333333), wk =   0.0092593
        k(   44) = (  -0.1666667   0.1666667   0.1666667), wk =   0.0092593
        k(   45) = (  -0.3333333   0.3333333   0.0000000), wk =   0.0092593
        k(   46) = (  -0.5000000   0.5000000  -0.1666667), wk =   0.0092593
        k(   47) = (  -0.6666667   0.6666667  -0.3333333), wk =   0.0092593
        k(   48) = (  -0.8333333   0.8333333  -0.5000000), wk =   0.0092593
        k(   49) = (   0.1666667   0.1666667   0.5000000), wk =   0.0092593
        k(   50) = (  -0.0000000   0.3333333   0.3333333), wk =   0.0092593
        k(   51) = (  -0.1666667   0.5000000   0.1666667), wk =   0.0092593
        k(   52) = (  -0.3333333   0.6666667   0.0000000), wk =   0.0092593
        k(   53) = (  -0.5000000   0.8333333  -0.1666667), wk =   0.0092593
        k(   54) = (  -0.6666667   1.0000000  -0.3333333), wk =   0.0092593
        k(   55) = (   0.3333333   0.3333333   0.6666667), wk =   0.0092593
        k(   56) = (   0.1666667   0.5000000   0.5000000), wk =   0.0092593
        k(   57) = (   0.0000000   0.6666667   0.3333333), wk =   0.0092593
        k(   58) = (  -0.1666667   0.8333333   0.1666667), wk =   0.0092593
        k(   59) = (  -0.3333333   1.0000000   0.0000000), wk =   0.0092593
        k(   60) = (  -0.5000000   1.1666667  -0.1666667), wk =   0.0092593
        k(   61) = (   0.5000000   0.5000000   0.8333333), wk =   0.0092593
        k(   62) = (   0.3333333   0.6666667   0.6666667), wk =   0.0092593
        k(   63) = (   0.1666667   0.8333333   0.5000000), wk =   0.0092593
        k(   64) = (   0.0000000   1.0000000   0.3333333), wk =   0.0092593
        k(   65) = (  -0.1666667   1.1666667   0.1666667), wk =   0.0092593
        k(   66) = (  -0.3333333   1.3333333   0.0000000), wk =   0.0092593
        k(   67) = (   0.6666667   0.6666667   1.0000000), wk =   0.0092593
        k(   68) = (   0.5000000   0.8333333   0.8333333), wk =   0.0092593
        k(   69) = (   0.3333333   1.0000000   0.6666667), wk =   0.0092593
        k(   70) = (   0.1666667   1.1666667   0.5000000), wk =   0.0092593
        k(   71) = (  -0.0000000   1.3333333   0.3333333), wk =   0.0092593
        k(   72) = (  -0.1666667   1.5000000   0.1666667), wk =   0.0092593
        k(   73) = (  -0.3333333  -0.3333333   0.3333333), wk =   0.0092593
        k(   74) = (  -0.5000000  -0.1666667   0.1666667), wk =   0.0092593
        k(   75) = (  -0.6666667   0.0000000   0.0000000), wk =   0.0092593
        k(   76) = (  -0.8333333   0.1666667  -0.1666667), wk =   0.0092593
        k(   77) = (  -1.0000000   0.3333333  -0.3333333), wk =   0.0092593
        k(   78) = (  -1.1666667   0.5000000  -0.5000000), wk =   0.0092593
        k(   79) = (  -0.1666667  -0.1666667   0.5000000), wk =   0.0092593
        k(   80) = (  -0.3333333   0.0000000   0.3333333), wk =   0.0092593
        k(   81) = (  -0.5000000   0.1666667   0.1666667), wk =   0.0092593
        k(   82) = (  -0.6666667   0.3333333   0.0000000), wk =   0.0092593
        k(   83) = (  -0.8333333   0.5000000  -0.1666667), wk =   0.0092593
        k(   84) = (  -1.0000000   0.6666667  -0.3333333), wk =   0.0092593
        k(   85) = (   0.0000000   0.0000000   0.6666667), wk =   0.0092593
        k(   86) = (  -0.1666667   0.1666667   0.5000000), wk =   0.0092593
        k(   87) = (  -0.3333333   0.3333333   0.3333333), wk =   0.0092593
        k(   88) = (  -0.5000000   0.5000000   0.1666667), wk =   0.0092593
        k(   89) = (  -0.6666667   0.6666667  -0.0000000), wk =   0.0092593
        k(   90) = (  -0.8333333   0.8333333  -0.1666667), wk =   0.0092593
        k(   91) = (   0.1666667   0.1666667   0.8333333), wk =   0.0092593
        k(   92) = (   0.0000000   0.3333333   0.6666667), wk =   0.0092593
        k(   93) = (  -0.1666667   0.5000000   0.5000000), wk =   0.0092593
        k(   94) = (  -0.3333333   0.6666667   0.3333333), wk =   0.0092593
        k(   95) = (  -0.5000000   0.8333333   0.1666667), wk =   0.0092593
        k(   96) = (  -0.6666667   1.0000000   0.0000000), wk =   0.0092593
        k(   97) = (   0.3333333   0.3333333   1.0000000), wk =   0.0092593
        k(   98) = (   0.1666667   0.5000000   0.8333333), wk =   0.0092593
        k(   99) = (   0.0000000   0.6666667   0.6666667), wk =   0.0092593
        k(  100) = (  -0.1666667   0.8333333   0.5000000), wk =   0.0092593
        k(  101) = (  -0.3333333   1.0000000   0.3333333), wk =   0.0092593
        k(  102) = (  -0.5000000   1.1666667   0.1666667), wk =   0.0092593
        k(  103) = (   0.5000000   0.5000000   1.1666667), wk =   0.0092593
        k(  104) = (   0.3333333   0.6666667   1.0000000), wk =   0.0092593
        k(  105) = (   0.1666667   0.8333333   0.8333333), wk =   0.0092593
        k(  106) = (   0.0000000   1.0000000   0.6666667), wk =   0.0092593
        k(  107) = (  -0.1666667   1.1666667   0.5000000), wk =   0.0092593
        k(  108) = (  -0.3333333   1.3333333   0.3333333), wk =   0.0092593
        k(  109) = (  -0.5000000  -0.5000000   0.5000000), wk =   0.0092593
        k(  110) = (  -0.6666667  -0.3333333   0.3333333), wk =   0.0092593
        k(  111) = (  -0.8333333  -0.1666667   0.1666667), wk =   0.0092593
        k(  112) = (  -1.0000000   0.0000000   0.0000000), wk =   0.0092593
        k(  113) = (  -1.1666667   0.1666667  -0.1666667), wk =   0.0092593
        k(  114) = (  -1.3333333   0.3333333  -0.3333333), wk =   0.0092593
        k(  115) = (  -0.3333333  -0.3333333   0.6666667), wk =   0.0092593
        k(  116) = (  -0.5000000  -0.1666667   0.5000000), wk =   0.0092593
        k(  117) = (  -0.6666667   0.0000000   0.3333333), wk =   0.0092593
        k(  118) = (  -0.8333333   0.1666667   0.1666667), wk =   0.0092593
        k(  119) = (  -1.0000000   0.3333333   0.0000000), wk =   0.0092593
        k(  120) = (  -1.1666667   0.5000000  -0.1666667), wk =   0.0092593
        k(  121) = (  -0.1666667  -0.1666667   0.8333333), wk =   0.0092593
        k(  122) = (  -0.3333333  -0.0000000   0.6666667), wk =   0.0092593
        k(  123) = (  -0.5000000   0.1666667   0.5000000), wk =   0.0092593
        k(  124) = (  -0.6666667   0.3333333   0.3333333), wk =   0.0092593
        k(  125) = (  -0.8333333   0.5000000   0.1666667), wk =   0.0092593
        k(  126) = (  -1.0000000   0.6666667   0.0000000), wk =   0.0092593
        k(  127) = (   0.0000000   0.0000000   1.0000000), wk =   0.0092593
        k(  128) = (  -0.1666667   0.1666667   0.8333333), wk =   0.0092593
        k(  129) = (  -0.3333333   0.3333333   0.6666667), wk =   0.0092593
        k(  130) = (  -0.5000000   0.5000000   0.5000000), wk =   0.0092593
        k(  131) = (  -0.6666667   0.6666667   0.3333333), wk =   0.0092593
        k(  132) = (  -0.8333333   0.8333333   0.1666667), wk =   0.0092593
        k(  133) = (   0.1666667   0.1666667   1.1666667), wk =   0.0092593
        k(  134) = (   0.0000000   0.3333333   1.0000000), wk =   0.0092593
        k(  135) = (  -0.1666667   0.5000000   0.8333333), wk =   0.0092593
        k(  136) = (  -0.3333333   0.6666667   0.6666667), wk =   0.0092593
        k(  137) = (  -0.5000000   0.8333333   0.5000000), wk =   0.0092593
        k(  138) = (  -0.6666667   1.0000000   0.3333333), wk =   0.0092593
        k(  139) = (   0.3333333   0.3333333   1.3333333), wk =   0.0092593
        k(  140) = (   0.1666667   0.5000000   1.1666667), wk =   0.0092593
        k(  141) = (   0.0000000   0.6666667   1.0000000), wk =   0.0092593
        k(  142) = (  -0.1666667   0.8333333   0.8333333), wk =   0.0092593
        k(  143) = (  -0.3333333   1.0000000   0.6666667), wk =   0.0092593
        k(  144) = (  -0.5000000   1.1666667   0.5000000), wk =   0.0092593
        k(  145) = (  -0.6666667  -0.6666667   0.6666667), wk =   0.0092593
        k(  146) = (  -0.8333333  -0.5000000   0.5000000), wk =   0.0092593
        k(  147) = (  -1.0000000  -0.3333333   0.3333333), wk =   0.0092593
        k(  148) = (  -1.1666667  -0.1666667   0.1666667), wk =   0.0092593
        k(  149) = (  -1.3333333   0.0000000   0.0000000), wk =   0.0092593
        k(  150) = (  -1.5000000   0.1666667  -0.1666667), wk =   0.0092593
        k(  151) = (  -0.5000000  -0.5000000   0.8333333), wk =   0.0092593
        k(  152) = (  -0.6666667  -0.3333333   0.6666667), wk =   0.0092593
        k(  153) = (  -0.8333333  -0.1666667   0.5000000), wk =   0.0092593
        k(  154) = (  -1.0000000   0.0000000   0.3333333), wk =   0.0092593
        k(  155) = (  -1.1666667   0.1666667   0.1666667), wk =   0.0092593
        k(  156) = (  -1.3333333   0.3333333   0.0000000), wk =   0.0092593
        k(  157) = (  -0.3333333  -0.3333333   1.0000000), wk =   0.0092593
        k(  158) = (  -0.5000000  -0.1666667   0.8333333), wk =   0.0092593
        k(  159) = (  -0.6666667  -0.0000000   0.6666667), wk =   0.0092593
        k(  160) = (  -0.8333333   0.1666667   0.5000000), wk =   0.0092593
        k(  161) = (  -1.0000000   0.3333333   0.3333333), wk =   0.0092593
        k(  162) = (  -1.1666667   0.5000000   0.1666667), wk =   0.0092593
        k(  163) = (  -0.1666667  -0.1666667   1.1666667), wk =   0.0092593
        k(  164) = (  -0.3333333  -0.0000000   1.0000000), wk =   0.0092593
        k(  165) = (  -0.5000000   0.1666667   0.8333333), wk =   0.0092593
        k(  166) = (  -0.6666667   0.3333333   0.6666667), wk =   0.0092593
        k(  167) = (  -0.8333333   0.5000000   0.5000000), wk =   0.0092593
        k(  168) = (  -1.0000000   0.6666667   0.3333333), wk =   0.0092593
        k(  169) = (   0.0000000   0.0000000   1.3333333), wk =   0.0092593
        k(  170) = (  -0.1666667   0.1666667   1.1666667), wk =   0.0092593
        k(  171) = (  -0.3333333   0.3333333   1.0000000), wk =   0.0092593
        k(  172) = (  -0.5000000   0.5000000   0.8333333), wk =   0.0092593
        k(  173) = (  -0.6666667   0.6666667   0.6666667), wk =   0.0092593
        k(  174) = (  -0.8333333   0.8333333   0.5000000), wk =   0.0092593
        k(  175) = (   0.1666667   0.1666667   1.5000000), wk =   0.0092593
        k(  176) = (  -0.0000000   0.3333333   1.3333333), wk =   0.0092593
        k(  177) = (  -0.1666667   0.5000000   1.1666667), wk =   0.0092593
        k(  178) = (  -0.3333333   0.6666667   1.0000000), wk =   0.0092593
        k(  179) = (  -0.5000000   0.8333333   0.8333333), wk =   0.0092593
        k(  180) = (  -0.6666667   1.0000000   0.6666667), wk =   0.0092593
        k(  181) = (  -0.8333333  -0.8333333   0.8333333), wk =   0.0092593
        k(  182) = (  -1.0000000  -0.6666667   0.6666667), wk =   0.0092593
        k(  183) = (  -1.1666667  -0.5000000   0.5000000), wk =   0.0092593
        k(  184) = (  -1.3333333  -0.3333333   0.3333333), wk =   0.0092593
        k(  185) = (  -1.5000000  -0.1666667   0.1666667), wk =   0.0092593
        k(  186) = (  -1.6666667   0.0000000   0.0000000), wk =   0.0092593
        k(  187) = (  -0.6666667  -0.6666667   1.0000000), wk =   0.0092593
        k(  188) = (  -0.8333333  -0.5000000   0.8333333), wk =   0.0092593
        k(  189) = (  -1.0000000  -0.3333333   0.6666667), wk =   0.0092593
        k(  190) = (  -1.1666667  -0.1666667   0.5000000), wk =   0.0092593
        k(  191) = (  -1.3333333   0.0000000   0.3333333), wk =   0.0092593
        k(  192) = (  -1.5000000   0.1666667   0.1666667), wk =   0.0092593
        k(  193) = (  -0.5000000  -0.5000000   1.1666667), wk =   0.0092593
        k(  194) = (  -0.6666667  -0.3333333   1.0000000), wk =   0.0092593
        k(  195) = (  -0.8333333  -0.1666667   0.8333333), wk =   0.0092593
        k(  196) = (  -1.0000000   0.0000000   0.6666667), wk =   0.0092593
        k(  197) = (  -1.1666667   0.1666667   0.5000000), wk =   0.0092593
        k(  198) = (  -1.3333333   0.3333333   0.3333333), wk =   0.0092593
        k(  199) = (  -0.3333333  -0.3333333   1.3333333), wk =   0.0092593
        k(  200) = (  -0.5000000  -0.1666667   1.1666667), wk =   0.0092593
        k(  201) = (  -0.6666667   0.0000000   1.0000000), wk =   0.0092593
        k(  202) = (  -0.8333333   0.1666667   0.8333333), wk =   0.0092593
        k(  203) = (  -1.0000000   0.3333333   0.6666667), wk =   0.0092593
        k(  204) = (  -1.1666667   0.5000000   0.5000000), wk =   0.0092593
        k(  205) = (  -0.1666667  -0.1666667   1.5000000), wk =   0.0092593
        k(  206) = (  -0.3333333   0.0000000   1.3333333), wk =   0.0092593
        k(  207) = (  -0.5000000   0.1666667   1.1666667), wk =   0.0092593
        k(  208) = (  -0.6666667   0.3333333   1.0000000), wk =   0.0092593
        k(  209) = (  -0.8333333   0.5000000   0.8333333), wk =   0.0092593
        k(  210) = (  -1.0000000   0.6666667   0.6666667), wk =   0.0092593
        k(  211) = (   0.0000000   0.0000000   1.6666667), wk =   0.0092593
        k(  212) = (  -0.1666667   0.1666667   1.5000000), wk =   0.0092593
        k(  213) = (  -0.3333333   0.3333333   1.3333333), wk =   0.0092593
        k(  214) = (  -0.5000000   0.5000000   1.1666667), wk =   0.0092593
        k(  215) = (  -0.6666667   0.6666667   1.0000000), wk =   0.0092593
        k(  216) = (  -0.8333333   0.8333333   0.8333333), wk =   0.0092593

                       cryst. coord.
        k(    1) = (   0.0000000   0.0000000   0.0000000), wk =   0.0092593
        k(    2) = (   0.0000000   0.0000000   0.1666667), wk =   0.0092593
        k(    3) = (   0.0000000   0.0000000   0.3333333), wk =   0.0092593
        k(    4) = (   0.0000000   0.0000000   0.5000000), wk =   0.0092593
        k(    5) = (   0.0000000   0.0000000   0.6666667), wk =   0.0092593
        k(    6) = (   0.0000000   0.0000000   0.8333333), wk =   0.0092593
        k(    7) = (   0.0000000   0.1666667   0.0000000), wk =   0.0092593
        k(    8) = (   0.0000000   0.1666667   0.1666667), wk =   0.0092593
        k(    9) = (   0.0000000   0.1666667   0.3333333), wk =   0.0092593
        k(   10) = (   0.0000000   0.1666667   0.5000000), wk =   0.0092593
        k(   11) = (   0.0000000   0.1666667   0.6666667), wk =   0.0092593
        k(   12) = (   0.0000000   0.1666667   0.8333333), wk =   0.0092593
        k(   13) = (   0.0000000   0.3333333   0.0000000), wk =   0.0092593
        k(   14) = (   0.0000000   0.3333333   0.1666667), wk =   0.0092593
        k(   15) = (   0.0000000   0.3333333   0.3333333), wk =   0.0092593
        k(   16) = (   0.0000000   0.3333333   0.5000000), wk =   0.0092593
        k(   17) = (   0.0000000   0.3333333   0.6666667), wk =   0.0092593
        k(   18) = (   0.0000000   0.3333333   0.8333333), wk =   0.0092593
        k(   19) = (   0.0000000   0.5000000   0.0000000), wk =   0.0092593
        k(   20) = (   0.0000000   0.5000000   0.1666667), wk =   0.0092593
        k(   21) = (   0.0000000   0.5000000   0.3333333), wk =   0.0092593
        k(   22) = (   0.0000000   0.5000000   0.5000000), wk =   0.0092593
        k(   23) = (   0.0000000   0.5000000   0.6666667), wk =   0.0092593
        k(   24) = (   0.0000000   0.5000000   0.8333333), wk =   0.0092593
        k(   25) = (   0.0000000   0.6666667   0.0000000), wk =   0.0092593
        k(   26) = (   0.0000000   0.6666667   0.1666667), wk =   0.0092593
        k(   27) = (   0.0000000   0.6666667   0.3333333), wk =   0.0092593
        k(   28) = (   0.0000000   0.6666667   0.5000000), wk =   0.0092593
        k(   29) = (   0.0000000   0.6666667   0.6666667), wk =   0.0092593
        k(   30) = (   0.0000000   0.6666667   0.8333333), wk =   0.0092593
        k(   31) = (   0.0000000   0.8333333   0.0000000), wk =   0.0092593
        k(   32) = (   0.0000000   0.8333333   0.1666667), wk =   0.0092593
        k(   33) = (   0.0000000   0.8333333   0.3333333), wk =   0.0092593
        k(   34) = (   0.0000000   0.8333333   0.5000000), wk =   0.0092593
        k(   35) = (   0.0000000   0.8333333   0.6666667), wk =   0.0092593
        k(   36) = (   0.0000000   0.8333333   0.8333333), wk =   0.0092593
        k(   37) = (   0.1666667   0.0000000   0.0000000), wk =   0.0092593
        k(   38) = (   0.1666667   0.0000000   0.1666667), wk =   0.0092593
        k(   39) = (   0.1666667   0.0000000   0.3333333), wk =   0.0092593
        k(   40) = (   0.1666667   0.0000000   0.5000000), wk =   0.0092593
        k(   41) = (   0.1666667   0.0000000   0.6666667), wk =   0.0092593
        k(   42) = (   0.1666667   0.0000000   0.8333333), wk =   0.0092593
        k(   43) = (   0.1666667   0.1666667   0.0000000), wk =   0.0092593
        k(   44) = (   0.1666667   0.1666667   0.1666667), wk =   0.0092593
        k(   45) = (   0.1666667   0.1666667   0.3333333), wk =   0.0092593
        k(   46) = (   0.1666667   0.1666667   0.5000000), wk =   0.0092593
        k(   47) = (   0.1666667   0.1666667   0.6666667), wk =   0.0092593
        k(   48) = (   0.1666667   0.1666667   0.8333333), wk =   0.0092593
        k(   49) = (   0.1666667   0.3333333   0.0000000), wk =   0.0092593
        k(   50) = (   0.1666667   0.3333333   0.1666667), wk =   0.0092593
        k(   51) = (   0.1666667   0.3333333   0.3333333), wk =   0.0092593
        k(   52) = (   0.1666667   0.3333333   0.5000000), wk =   0.0092593
        k(   53) = (   0.1666667   0.3333333   0.6666667), wk =   0.0092593
        k(   54) = (   0.1666667   0.3333333   0.8333333), wk =   0.0092593
        k(   55) = (   0.1666667   0.5000000   0.0000000), wk =   0.0092593
        k(   56) = (   0.1666667   0.5000000   0.1666667), wk =   0.0092593
        k(   57) = (   0.1666667   0.5000000   0.3333333), wk =   0.0092593
        k(   58) = (   0.1666667   0.5000000   0.5000000), wk =   0.0092593
        k(   59) = (   0.1666667   0.5000000   0.6666667), wk =   0.0092593
        k(   60) = (   0.1666667   0.5000000   0.8333333), wk =   0.0092593
        k(   61) = (   0.1666667   0.6666667   0.0000000), wk =   0.0092593
        k(   62) = (   0.1666667   0.6666667   0.1666667), wk =   0.0092593
        k(   63) = (   0.1666667   0.6666667   0.3333333), wk =   0.0092593
        k(   64) = (   0.1666667   0.6666667   0.5000000), wk =   0.0092593
        k(   65) = (   0.1666667   0.6666667   0.6666667), wk =   0.0092593
        k(   66) = (   0.1666667   0.6666667   0.8333333), wk =   0.0092593
        k(   67) = (   0.1666667   0.8333333   0.0000000), wk =   0.0092593
        k(   68) = (   0.1666667   0.8333333   0.1666667), wk =   0.0092593
        k(   69) = (   0.1666667   0.8333333   0.3333333), wk =   0.0092593
        k(   70) = (   0.1666667   0.8333333   0.5000000), wk =   0.0092593
        k(   71) = (   0.1666667   0.8333333   0.6666667), wk =   0.0092593
        k(   72) = (   0.1666667   0.8333333   0.8333333), wk =   0.0092593
        k(   73) = (   0.3333333   0.0000000   0.0000000), wk =   0.0092593
        k(   74) = (   0.3333333   0.0000000   0.1666667), wk =   0.0092593
        k(   75) = (   0.3333333   0.0000000   0.3333333), wk =   0.0092593
        k(   76) = (   0.3333333   0.0000000   0.5000000), wk =   0.0092593
        k(   77) = (   0.3333333   0.0000000   0.6666667), wk =   0.0092593
        k(   78) = (   0.3333333   0.0000000   0.8333333), wk =   0.0092593
        k(   79) = (   0.3333333   0.1666667   0.0000000), wk =   0.0092593
        k(   80) = (   0.3333333   0.1666667   0.1666667), wk =   0.0092593
        k(   81) = (   0.3333333   0.1666667   0.3333333), wk =   0.0092593
        k(   82) = (   0.3333333   0.1666667   0.5000000), wk =   0.0092593
        k(   83) = (   0.3333333   0.1666667   0.6666667), wk =   0.0092593
        k(   84) = (   0.3333333   0.1666667   0.8333333), wk =   0.0092593
        k(   85) = (   0.3333333   0.3333333   0.0000000), wk =   0.0092593
        k(   86) = (   0.3333333   0.3333333   0.1666667), wk =   0.0092593
        k(   87) = (   0.3333333   0.3333333   0.3333333), wk =   0.0092593
        k(   88) = (   0.3333333   0.3333333   0.5000000), wk =   0.0092593
        k(   89) = (   0.3333333   0.3333333   0.6666667), wk =   0.0092593
        k(   90) = (   0.3333333   0.3333333   0.8333333), wk =   0.0092593
        k(   91) = (   0.3333333   0.5000000   0.0000000), wk =   0.0092593
        k(   92) = (   0.3333333   0.5000000   0.1666667), wk =   0.0092593
        k(   93) = (   0.3333333   0.5000000   0.3333333), wk =   0.0092593
        k(   94) = (   0.3333333   0.5000000   0.5000000), wk =   0.0092593
        k(   95) = (   0.3333333   0.5000000   0.6666667), wk =   0.0092593
        k(   96) = (   0.3333333   0.5000000   0.8333333), wk =   0.0092593
        k(   97) = (   0.3333333   0.6666667   0.0000000), wk =   0.0092593
        k(   98) = (   0.3333333   0.6666667   0.1666667), wk =   0.0092593
        k(   99) = (   0.3333333   0.6666667   0.3333333), wk =   0.0092593
        k(  100) = (   0.3333333   0.6666667   0.5000000), wk =   0.0092593
        k(  101) = (   0.3333333   0.6666667   0.6666667), wk =   0.0092593
        k(  102) = (   0.3333333   0.6666667   0.8333333), wk =   0.0092593
        k(  103) = (   0.3333333   0.8333333   0.0000000), wk =   0.0092593
        k(  104) = (   0.3333333   0.8333333   0.1666667), wk =   0.0092593
        k(  105) = (   0.3333333   0.8333333   0.3333333), wk =   0.0092593
        k(  106) = (   0.3333333   0.8333333   0.5000000), wk =   0.0092593
        k(  107) = (   0.3333333   0.8333333   0.6666667), wk =   0.0092593
        k(  108) = (   0.3333333   0.8333333   0.8333333), wk =   0.0092593
        k(  109) = (   0.5000000   0.0000000   0.0000000), wk =   0.0092593
        k(  110) = (   0.5000000   0.0000000   0.1666667), wk =   0.0092593
        k(  111) = (   0.5000000   0.0000000   0.3333333), wk =   0.0092593
        k(  112) = (   0.5000000   0.0000000   0.5000000), wk =   0.0092593
        k(  113) = (   0.5000000   0.0000000   0.6666667), wk =   0.0092593
        k(  114) = (   0.5000000   0.0000000   0.8333333), wk =   0.0092593
        k(  115) = (   0.5000000   0.1666667   0.0000000), wk =   0.0092593
        k(  116) = (   0.5000000   0.1666667   0.1666667), wk =   0.0092593
        k(  117) = (   0.5000000   0.1666667   0.3333333), wk =   0.0092593
        k(  118) = (   0.5000000   0.1666667   0.5000000), wk =   0.0092593
        k(  119) = (   0.5000000   0.1666667   0.6666667), wk =   0.0092593
        k(  120) = (   0.5000000   0.1666667   0.8333333), wk =   0.0092593
        k(  121) = (   0.5000000   0.3333333   0.0000000), wk =   0.0092593
        k(  122) = (   0.5000000   0.3333333   0.1666667), wk =   0.0092593
        k(  123) = (   0.5000000   0.3333333   0.3333333), wk =   0.0092593
        k(  124) = (   0.5000000   0.3333333   0.5000000), wk =   0.0092593
        k(  125) = (   0.5000000   0.3333333   0.6666667), wk =   0.0092593
        k(  126) = (   0.5000000   0.3333333   0.8333333), wk =   0.0092593
        k(  127) = (   0.5000000   0.5000000   0.0000000), wk =   0.0092593
        k(  128) = (   0.5000000   0.5000000   0.1666667), wk =   0.0092593
        k(  129) = (   0.5000000   0.5000000   0.3333333), wk =   0.0092593
        k(  130) = (   0.5000000   0.5000000   0.5000000), wk =   0.0092593
        k(  131) = (   0.5000000   0.5000000   0.6666667), wk =   0.0092593
        k(  132) = (   0.5000000   0.5000000   0.8333333), wk =   0.0092593
        k(  133) = (   0.5000000   0.6666667   0.0000000), wk =   0.0092593
        k(  134) = (   0.5000000   0.6666667   0.1666667), wk =   0.0092593
        k(  135) = (   0.5000000   0.6666667   0.3333333), wk =   0.0092593
        k(  136) = (   0.5000000   0.6666667   0.5000000), wk =   0.0092593
        k(  137) = (   0.5000000   0.6666667   0.6666667), wk =   0.0092593
        k(  138) = (   0.5000000   0.6666667   0.8333333), wk =   0.0092593
        k(  139) = (   0.5000000   0.8333333   0.0000000), wk =   0.0092593
        k(  140) = (   0.5000000   0.8333333   0.1666667), wk =   0.0092593
        k(  141) = (   0.5000000   0.8333333   0.3333333), wk =   0.0092593
        k(  142) = (   0.5000000   0.8333333   0.5000000), wk =   0.0092593
        k(  143) = (   0.5000000   0.8333333   0.6666667), wk =   0.0092593
        k(  144) = (   0.5000000   0.8333333   0.8333333), wk =   0.0092593
        k(  145) = (   0.6666667   0.0000000   0.0000000), wk =   0.0092593
        k(  146) = (   0.6666667   0.0000000   0.1666667), wk =   0.0092593
        k(  147) = (   0.6666667   0.0000000   0.3333333), wk =   0.0092593
        k(  148) = (   0.6666667   0.0000000   0.5000000), wk =   0.0092593
        k(  149) = (   0.6666667   0.0000000   0.6666667), wk =   0.0092593
        k(  150) = (   0.6666667   0.0000000   0.8333333), wk =   0.0092593
        k(  151) = (   0.6666667   0.1666667   0.0000000), wk =   0.0092593
        k(  152) = (   0.6666667   0.1666667   0.1666667), wk =   0.0092593
        k(  153) = (   0.6666667   0.1666667   0.3333333), wk =   0.0092593
        k(  154) = (   0.6666667   0.1666667   0.5000000), wk =   0.0092593
        k(  155) = (   0.6666667   0.1666667   0.6666667), wk =   0.0092593
        k(  156) = (   0.6666667   0.1666667   0.8333333), wk =   0.0092593
        k(  157) = (   0.6666667   0.3333333   0.0000000), wk =   0.0092593
        k(  158) = (   0.6666667   0.3333333   0.1666667), wk =   0.0092593
        k(  159) = (   0.6666667   0.3333333   0.3333333), wk =   0.0092593
        k(  160) = (   0.6666667   0.3333333   0.5000000), wk =   0.0092593
        k(  161) = (   0.6666667   0.3333333   0.6666667), wk =   0.0092593
        k(  162) = (   0.6666667   0.3333333   0.8333333), wk =   0.0092593
        k(  163) = (   0.6666667   0.5000000   0.0000000), wk =   0.0092593
        k(  164) = (   0.6666667   0.5000000   0.1666667), wk =   0.0092593
        k(  165) = (   0.6666667   0.5000000   0.3333333), wk =   0.0092593
        k(  166) = (   0.6666667   0.5000000   0.5000000), wk =   0.0092593
        k(  167) = (   0.6666667   0.5000000   0.6666667), wk =   0.0092593
        k(  168) = (   0.6666667   0.5000000   0.8333333), wk =   0.0092593
        k(  169) = (   0.6666667   0.6666667   0.0000000), wk =   0.0092593
        k(  170) = (   0.6666667   0.6666667   0.1666667), wk =   0.0092593
        k(  171) = (   0.6666667   0.6666667   0.3333333), wk =   0.0092593
        k(  172) = (   0.6666667   0.6666667   0.5000000), wk =   0.0092593
        k(  173) = (   0.6666667   0.6666667   0.6666667), wk =   0.0092593
        k(  174) = (   0.6666667   0.6666667   0.8333333), wk =   0.0092593
        k(  175) = (   0.6666667   0.8333333   0.0000000), wk =   0.0092593
        k(  176) = (   0.6666667   0.8333333   0.1666667), wk =   0.0092593
        k(  177) = (   0.6666667   0.8333333   0.3333333), wk =   0.0092593
        k(  178) = (   0.6666667   0.8333333   0.5000000), wk =   0.0092593
        k(  179) = (   0.6666667   0.8333333   0.6666667), wk =   0.0092593
        k(  180) = (   0.6666667   0.8333333   0.8333333), wk =   0.0092593
        k(  181) = (   0.8333333   0.0000000   0.0000000), wk =   0.0092593
        k(  182) = (   0.8333333   0.0000000   0.1666667), wk =   0.0092593
        k(  183) = (   0.8333333   0.0000000   0.3333333), wk =   0.0092593
        k(  184) = (   0.8333333   0.0000000   0.5000000), wk =   0.0092593
        k(  185) = (   0.8333333   0.0000000   0.6666667), wk =   0.0092593
        k(  186) = (   0.8333333   0.0000000   0.8333333), wk =   0.0092593
        k(  187) = (   0.8333333   0.1666667   0.0000000), wk =   0.0092593
        k(  188) = (   0.8333333   0.1666667   0.1666667), wk =   0.0092593
        k(  189) = (   0.8333333   0.1666667   0.3333333), wk =   0.0092593
        k(  190) = (   0.8333333   0.1666667   0.5000000), wk =   0.0092593
        k(  191) = (   0.8333333   0.1666667   0.6666667), wk =   0.0092593
        k(  192) = (   0.8333333   0.1666667   0.8333333), wk =   0.0092593
        k(  193) = (   0.8333333   0.3333333   0.0000000), wk =   0.0092593
        k(  194) = (   0.8333333   0.3333333   0.1666667), wk =   0.0092593
        k(  195) = (   0.8333333   0.3333333   0.3333333), wk =   0.0092593
        k(  196) = (   0.8333333   0.3333333   0.5000000), wk =   0.0092593
        k(  197) = (   0.8333333   0.3333333   0.6666667), wk =   0.0092593
        k(  198) = (   0.8333333   0.3333333   0.8333333), wk =   0.0092593
        k(  199) = (   0.8333333   0.5000000   0.0000000), wk =   0.0092593
        k(  200) = (   0.8333333   0.5000000   0.1666667), wk =   0.0092593
        k(  201) = (   0.8333333   0.5000000   0.3333333), wk =   0.0092593
        k(  202) = (   0.8333333   0.5000000   0.5000000), wk =   0.0092593
        k(  203) = (   0.8333333   0.5000000   0.6666667), wk =   0.0092593
        k(  204) = (   0.8333333   0.5000000   0.8333333), wk =   0.0092593
        k(  205) = (   0.8333333   0.6666667   0.0000000), wk =   0.0092593
        k(  206) = (   0.8333333   0.6666667   0.1666667), wk =   0.0092593
        k(  207) = (   0.8333333   0.6666667   0.3333333), wk =   0.0092593
        k(  208) = (   0.8333333   0.6666667   0.5000000), wk =   0.0092593
        k(  209) = (   0.8333333   0.6666667   0.6666667), wk =   0.0092593
        k(  210) = (   0.8333333   0.6666667   0.8333333), wk =   0.0092593
        k(  211) = (   0.8333333   0.8333333   0.0000000), wk =   0.0092593
        k(  212) = (   0.8333333   0.8333333   0.1666667), wk =   0.0092593
        k(  213) = (   0.8333333   0.8333333   0.3333333), wk =   0.0092593
        k(  214) = (   0.8333333   0.8333333   0.5000000), wk =   0.0092593
        k(  215) = (   0.8333333   0.8333333   0.6666667), wk =   0.0092593
        k(  216) = (   0.8333333   0.8333333   0.8333333), wk =   0.0092593

     Dense  grid:     9257 G-vectors     FFT dimensions: (  30,  30,  30)

     Dynamical RAM for                 wfc:       0.09 MB

     Dynamical RAM for     wfc (w. buffer):      19.07 MB

     Dynamical RAM for           str. fact:       0.04 MB

     Dynamical RAM for           local pot:       0.00 MB

     Dynamical RAM for          nlocal pot:       0.04 MB

     Dynamical RAM for                qrad:       0.09 MB

     Dynamical RAM for          rho,v,vnew:       0.27 MB

     Dynamical RAM for               rhoin:       0.09 MB

     Dynamical RAM for            rho*nmix:       0.57 MB

     Dynamical RAM for           G-vectors:       0.15 MB

     Dynamical RAM for          h,s,v(r/c):       0.07 MB

     Dynamical RAM for          <psi|beta>:       0.00 MB

     Dynamical RAM for                 psi:       0.18 MB

     Dynamical RAM for                hpsi:       0.18 MB

     Dynamical RAM for      wfcinit/wfcrot:       0.19 MB

     Estimated static dynamical RAM per process >      20.09 MB

     Estimated max dynamical RAM per process >      21.08 MB

     Estimated total dynamical RAM >      84.32 MB

     Initial potential from superposition of free atoms

     starting charge       7.9990, renormalised to       8.0000
     Starting wfcs are    8 randomized atomic wfcs +   12 random wfcs

     total cpu time spent up to now is        4.3 secs

     Self-consistent Calculation

     iteration #  1     ecut=    40.00 Ry     beta= 0.60
     Davidson diagonalization with overlap

---- Real-time Memory Report at c_bands before calling an iterative solver
            56 MiB given to the printing process from OS
             0 MiB allocation reported by mallinfo(arena+hblkhd)
           253 MiB available memory on the node where the printing process lives
------------------
     ethr =  1.00E-02,  avg # of iterations =  6.7

     Threshold (ethr) on eigenvalues was too large:
     Diagonalizing with lowered threshold

     Davidson diagonalization with overlap

---- Real-time Memory Report at c_bands before calling an iterative solver
            57 MiB given to the printing process from OS
             0 MiB allocation reported by mallinfo(arena+hblkhd)
           244 MiB available memory on the node where the printing process lives
------------------
     ethr =  7.79E-04,  avg # of iterations =  1.1

     total cpu time spent up to now is       37.4 secs

     total energy              =     -15.84918666 Ry
     estimated scf accuracy    <       0.06239117 Ry

     iteration #  2     ecut=    40.00 Ry     beta= 0.60
     Davidson diagonalization with overlap

---- Real-time Memory Report at c_bands before calling an iterative solver
            58 MiB given to the printing process from OS
             0 MiB allocation reported by mallinfo(arena+hblkhd)
           234 MiB available memory on the node where the printing process lives
------------------
     ethr =  7.80E-04,  avg # of iterations =  1.0

     total cpu time spent up to now is       48.2 secs

     total energy              =     -15.85108364 Ry
     estimated scf accuracy    <       0.00455621 Ry

     iteration #  3     ecut=    40.00 Ry     beta= 0.60
     Davidson diagonalization with overlap

---- Real-time Memory Report at c_bands before calling an iterative solver
            59 MiB given to the printing process from OS
             0 MiB allocation reported by mallinfo(arena+hblkhd)
           228 MiB available memory on the node where the printing process lives
------------------
     ethr =  5.70E-05,  avg # of iterations =  3.7

     total cpu time spent up to now is       58.8 secs

     total energy              =     -15.85125274 Ry
     estimated scf accuracy    <       0.00011664 Ry

     iteration #  4     ecut=    40.00 Ry     beta= 0.60
     Davidson diagonalization with overlap

---- Real-time Memory Report at c_bands before calling an iterative solver
            59 MiB given to the printing process from OS
             0 MiB allocation reported by mallinfo(arena+hblkhd)
           229 MiB available memory on the node where the printing process lives
------------------
     ethr =  1.46E-06,  avg # of iterations =  4.5

     total cpu time spent up to now is       70.7 secs

     End of self-consistent calculation

          k = 0.0000 0.0000 0.0000 (  1139 PWs)   bands (ev):

    -5.8800   6.0520   6.0520   6.0520   8.6105   8.6105   8.6105   9.3259
    13.7502  13.8056  13.8056  17.2060  17.2060  17.2060  21.0904  28.7327
    28.7327  28.7327  29.8061  29.8061

     occupation numbers 
     1.0000   1.0000   1.0000   1.0000   0.0000   0.0000   0.0000   0.0000
     0.0000   0.0000   0.0000   0.0000   0.0000   0.0000   0.0000   0.0000
     0.0000   0.0000   0.0000   0.0000

          k =-0.1667 0.1667-0.1667 (  1167 PWs)   bands (ev):

    -5.5184   3.6751   5.6018   5.6018   8.3636   9.2552   9.2552  11.3919
    13.1486  13.1486  14.9157  16.5470  19.0870  19.0870  23.0860  25.7890
    25.7891  26.2393  29.5128  29.5128

     occupation numbers 
     1.0000   1.0000   1.0000   1.0000   0.0000   0.0000   0.0000   0.0000
     0.0000   0.0000   0.0000   0.0000   0.0000   0.0000   0.0000   0.0000
     0.0000   0.0000   0.0000   0.0000

          k =-0.3333 0.3333-0.3333 (  1149 PWs)   bands (ev):

    -4.4992   0.7206   5.0517   5.0517   7.7695   9.5516   9.5516  13.7642
    14.0248  14.0249  14.9586  19.4336  20.5444  20.5445  22.4757  23.6145
    23.6145  27.6250  29.6283  29.6284

     occupation numbers 
     1.0000   1.0000   1.0000   1.0000   0.0000   0.0000   0.0000   0.0000
     0.0000   0.0000   0.0000   0.0000   0.0000   0.0000   0.0000   0.0000
     0.0000   0.0000   0.0000   0.0000

          k =-0.5000 0.5000-0.5000 (  1158 PWs)   bands (ev):

    -3.5333  -0.9262   4.8533   4.8533   7.5450   9.3852   9.3852  13.6118
    16.5611  16.5611  17.1724  17.3373  17.3373  18.7628  24.8812  25.7674
    27.4631  27.4631  27.5832  27.5832

     occupation numbers 
     1.0000   1.0000   1.0000   1.0000   0.0000   0.0000   0.0000   0.0000
     0.0000   0.0000   0.0000   0.0000   0.0000   0.0000   0.0000   0.0000
     0.0000   0.0000   0.0000   0.0000

          k =-0.6667 0.6667-0.6667 (  1149 PWs)   bands (ev):

    -4.4992   0.7206   5.0517   5.0517   7.7695   9.5516   9.5516  13.7642
    14.0248  14.0249  14.9586  19.4336  20.5444  20.5445  22.4757  23.6145
    23.6145  27.6250  29.6283  29.6284

     occupation numbers 
     1.0000   1.0000   1.0000   1.0000   0.0000   0.0000   0.0000   0.0000
     0.0000   0.0000   0.0000   0.0000   0.0000   0.0000   0.0000   0.0000
     0.0000   0.0000   0.0000   0.0000

          k =-0.8333 0.8333-0.8333 (  1167 PWs)   bands (ev):

    -5.5184   3.6751   5.6018   5.6018   8.3636   9.2552   9.2552  11.3919
    13.1486  13.1486  14.9157  16.5470  19.0870  19.0870  23.0860  25.7891
    25.7891  26.2393  29.5128  29.5128

     occupation numbers 
     1.0000   1.0000   1.0000   1.0000   0.0000   0.0000   0.0000   0.0000
     0.0000   0.0000   0.0000   0.0000   0.0000   0.0000   0.0000   0.0000
     0.0000   0.0000   0.0000   0.0000

          k = 0.1667 0.1667 0.1667 (  1167 PWs)   bands (ev):

    -5.5184   3.6751   5.6018   5.6018   8.3636   9.2552   9.2552  11.3919
    13.1486  13.1486  14.9157  16.5470  19.0870  19.0870  23.0860  25.7891
    25.7891  26.2392  29.5128  29.5128

     occupation numbers 
     1.0000   1.0000   1.0000   1.0000   0.0000   0.0000   0.0000   0.0000
     0.0000   0.0000   0.0000   0.0000   0.0000   0.0000   0.0000   0.0000
     0.0000   0.0000   0.0000   0.0000

          k = 0.0000 0.3333 0.0000 (  1162 PWs)   bands (ev):

    -5.3955   4.0275   4.8578   4.8578   7.7241  10.2869  10.3809  10.3809
    12.5894  14.3399  15.5697  18.0369  18.0369  18.5596  24.1556  25.2734
    25.2734  26.5406  27.4560  29.3980

     occupation numbers 
     1.0000   1.0000   1.0000   1.0000   0.0000   0.0000   0.0000   0.0000
     0.0000   0.0000   0.0000   0.0000   0.0000   0.0000   0.0000   0.0000
     0.0000   0.0000   0.0000   0.0000

          k =-0.1667 0.5000-0.1667 (  1151 PWs)   bands (ev):

    -4.5784   1.6304   4.0545   4.3036   7.9786  10.0731  10.5337  11.1090
    15.0445  15.1213  16.3063  18.7336  19.6761  21.1380  21.9906  22.8820
    25.6024  26.4249  27.4042  29.0194

     occupation numbers 
     1.0000   1.0000   1.0000   1.0000   0.0000   0.0000   0.0000   0.0000
     0.0000   0.0000   0.0000   0.0000   0.0000   0.0000   0.0000   0.0000
     0.0000   0.0000   0.0000   0.0000

          k =-0.3333 0.6667-0.3333 (  1153 PWs)   bands (ev):

    -3.3777  -0.5495   3.2681   4.2737   8.0535  10.1178  10.6622  12.4119
    15.3410  16.4811  17.6740  17.8292  18.4977  21.9727  23.6575  24.9045
    25.9369  26.3103  26.9046  28.4761

     occupation numbers 
     1.0000   1.0000   1.0000   1.0000   0.0000   0.0000   0.0000   0.0000
     0.0000   0.0000   0.0000   0.0000   0.0000   0.0000   0.0000   0.0000
     0.0000   0.0000   0.0000   0.0000

          k =-0.5000 0.8333-0.5000 (  1156 PWs)   bands (ev):

    -3.7668   0.0545   2.9941   4.7543   8.4680  10.1188  10.2719  13.2409
    13.3650  15.3433  17.3812  18.6988  20.7720  21.3210  22.0939  23.7678
    25.7463  27.4734  27.9510  28.6426

     occupation numbers 
     1.0000   1.0000   1.0000   1.0000   0.0000   0.0000   0.0000   0.0000
     0.0000   0.0000   0.0000   0.0000   0.0000   0.0000   0.0000   0.0000
     0.0000   0.0000   0.0000   0.0000

          k =-0.6667 1.0000-0.6667 (  1147 PWs)   bands (ev):

    -4.9290   2.3501   3.6269   5.4880   9.0656   9.6026   9.8469  11.6358
    12.1571  15.3489  16.3398  17.4275  19.2888  21.5090  21.9387  24.4660
    26.3387  26.4935  26.9352  28.0695

     occupation numbers 
     1.0000   1.0000   1.0000   1.0000   0.0000   0.0000   0.0000   0.0000
     0.0000   0.0000   0.0000   0.0000   0.0000   0.0000   0.0000   0.0000
     0.0000   0.0000   0.0000   0.0000

          k = 0.3333 0.3333 0.3333 (  1149 PWs)   bands (ev):

    -4.4992   0.7206   5.0517   5.0517   7.7695   9.5516   9.5516  13.7642
    14.0248  14.0249  14.9586  19.4336  20.5444  20.5444  22.4757  23.6145
    23.6145  27.6250  29.6284  29.6284

     occupation numbers 
     1.0000   1.0000   1.0000   1.0000   0.0000   0.0000   0.0000   0.0000
     0.0000   0.0000   0.0000   0.0000   0.0000   0.0000   0.0000   0.0000
     0.0000   0.0000   0.0000   0.0000

          k = 0.1667 0.5000 0.1667 (  1151 PWs)   bands (ev):

    -4.5784   1.6304   4.0545   4.3036   7.9786  10.0731  10.5337  11.1090
    15.0445  15.1213  16.3063  18.7336  19.6761  21.1380  21.9906  22.8820
    25.6024  26.4249  27.4042  29.0193

     occupation numbers 
     1.0000   1.0000   1.0000   1.0000   0.0000   0.0000   0.0000   0.0000
     0.0000   0.0000   0.0000   0.0000   0.0000   0.0000   0.0000   0.0000
     0.0000   0.0000   0.0000   0.0000

          k = 0.0000 0.6667 0.0000 (  1150 PWs)   bands (ev):

    -3.9736   1.0718   3.6297   3.6297   6.7305   7.9917  13.2663  13.2663
    15.6884  15.9367  18.9095  19.4006  19.4006  20.9850  22.1810  22.3476
    22.3477  24.5749  28.5244  30.0829

     occupation numbers 
     1.0000   1.0000   1.0000   1.0000   0.0000   0.0000   0.0000   0.0000
     0.0000   0.0000   0.0000   0.0000   0.0000   0.0000   0.0000   0.0000
     0.0000   0.0000   0.0000   0.0000

          k =-0.1667 0.8333-0.1667 (  1149 PWs)   bands (ev):

    -2.8059  -0.4801   2.3987   3.4928   7.0649   8.7216  13.4489  13.4669
    16.5437  16.6953  18.3281  18.7048  20.5926  21.6398  21.8908  24.3998
    24.5828  25.2882  26.3615  28.2147

     occupation numbers 
     1.0000   1.0000   1.0000   1.0000   0.0000   0.0000   0.0000   0.0000
     0.0000   0.0000   0.0000   0.0000   0.0000   0.0000   0.0000   0.0000
     0.0000   0.0000   0.0000   0.0000

          k =-0.3333 1.0000-0.3333 (  1141 PWs)   bands (ev):

    -2.6033  -0.6897   1.6081   3.9370   7.5724  11.7861  12.5029  13.0496
    13.3794  13.7017  20.2541  20.8230  21.5166  21.6321  22.5373  23.3440
    24.0504  25.6799  27.9079  28.4936

     occupation numbers 
     1.0000   1.0000   1.0000   1.0000   0.0000   0.0000   0.0000   0.0000
     0.0000   0.0000   0.0000   0.0000   0.0000   0.0000   0.0000   0.0000
     0.0000   0.0000   0.0000   0.0000

          k =-0.5000 1.1667-0.5000 (  1156 PWs)   bands (ev):

    -3.7668   0.0545   2.9941   4.7543   8.4680  10.1188  10.2719  13.2409
    13.3650  15.3433  17.3811  18.6988  20.7720  21.3210  22.0939  23.7678
    25.7463  27.4734  27.9510  28.6426

     occupation numbers 
     1.0000   1.0000   1.0000   1.0000   0.0000   0.0000   0.0000   0.0000
     0.0000   0.0000   0.0000   0.0000   0.0000   0.0000   0.0000   0.0000
     0.0000   0.0000   0.0000   0.0000

          k = 0.5000 0.5000 0.5000 (  1158 PWs)   bands (ev):

    -3.5333  -0.9262   4.8533   4.8533   7.5450   9.3852   9.3852  13.6118
    16.5611  16.5611  17.1724  17.3373  17.3373  18.7628  24.8812  25.7674
    27.4631  27.4631  27.5832  27.5832

     occupation numbers 
     1.0000   1.0000   1.0000   1.0000   0.0000   0.0000   0.0000   0.0000
     0.0000   0.0000   0.0000   0.0000   0.0000   0.0000   0.0000   0.0000
     0.0000   0.0000   0.0000   0.0000

          k = 0.3333 0.6667 0.3333 (  1153 PWs)   bands (ev):

    -3.3777  -0.5495   3.2680   4.2737   8.0535  10.1178  10.6622  12.4119
    15.3410  16.4811  17.6740  17.8292  18.4977  21.9727  23.6574  24.9045
    25.9369  26.3102  26.9045  28.4760

     occupation numbers 
     1.0000   1.0000   1.0000   1.0000   0.0000   0.0000   0.0000   0.0000
     0.0000   0.0000   0.0000   0.0000   0.0000   0.0000   0.0000   0.0000
     0.0000   0.0000   0.0000   0.0000

          k = 0.1667 0.8333 0.1667 (  1149 PWs)   bands (ev):

    -2.8059  -0.4801   2.3987   3.4928   7.0649   8.7216  13.4489  13.4669
    16.5437  16.6953  18.3281  18.7048  20.5927  21.6397  21.8908  24.3998
    24.5828  25.2882  26.3614  28.2147

     occupation numbers 
     1.0000   1.0000   1.0000   1.0000   0.0000   0.0000   0.0000   0.0000
     0.0000   0.0000   0.0000   0.0000   0.0000   0.0000   0.0000   0.0000
     0.0000   0.0000   0.0000   0.0000

          k = 0.0000 1.0000 0.0000 (  1162 PWs)   bands (ev):

    -1.7313  -1.7313   3.1934   3.1934   6.7082   6.7082  16.0542  16.0542
    16.9483  16.9483  18.5718  18.5718  18.8301  18.8302  24.5967  24.5967
    25.5942  25.5942  26.2014  26.2014

     occupation numbers 
     1.0000   1.0000   1.0000   1.0000   0.0000   0.0000   0.0000   0.0000
     0.0000   0.0000   0.0000   0.0000   0.0000   0.0000   0.0000   0.0000
     0.0000   0.0000   0.0000   0.0000

          k =-0.1667 1.1667-0.1667 (  1149 PWs)   bands (ev):

    -2.8059  -0.4801   2.3987   3.4928   7.0649   8.7216  13.4489  13.4669
    16.5437  16.6953  18.3281  18.7047  20.5926  21.6397  21.8908  24.3998
    24.5828  25.2881  26.3614  28.2147

     occupation numbers 
     1.0000   1.0000   1.0000   1.0000   0.0000   0.0000   0.0000   0.0000
     0.0000   0.0000   0.0000   0.0000   0.0000   0.0000   0.0000   0.0000
     0.0000   0.0000   0.0000   0.0000

          k =-0.3333 1.3333-0.3333 (  1153 PWs)   bands (ev):

    -3.3777  -0.5495   3.2680   4.2737   8.0535  10.1178  10.6622  12.4119
    15.3410  16.4811  17.6740  17.8292  18.4977  21.9727  23.6574  24.9045
    25.9369  26.3102  26.9046  28.4760

     occupation numbers 
     1.0000   1.0000   1.0000   1.0000   0.0000   0.0000   0.0000   0.0000
     0.0000   0.0000   0.0000   0.0000   0.0000   0.0000   0.0000   0.0000
     0.0000   0.0000   0.0000   0.0000

          k = 0.6667 0.6667 0.6667 (  1149 PWs)   bands (ev):

    -4.4992   0.7206   5.0517   5.0517   7.7695   9.5516   9.5516  13.7642
    14.0249  14.0249  14.9586  19.4336  20.5444  20.5444  22.4757  23.6145
    23.6145  27.6250  29.6284  29.6285

     occupation numbers 
     1.0000   1.0000   1.0000   1.0000   0.0000   0.0000   0.0000   0.0000
     0.0000   0.0000   0.0000   0.0000   0.0000   0.0000   0.0000   0.0000
     0.0000   0.0000   0.0000   0.0000

          k = 0.5000 0.8333 0.5000 (  1156 PWs)   bands (ev):

    -3.7668   0.0545   2.9941   4.7543   8.4680  10.1188  10.2719  13.2409
    13.3650  15.3433  17.3811  18.6988  20.7720  21.3210  22.0939  23.7677
    25.7463  27.4734  27.9510  28.6426

     occupation numbers 
     1.0000   1.0000   1.0000   1.0000   0.0000   0.0000   0.0000   0.0000
     0.0000   0.0000   0.0000   0.0000   0.0000   0.0000   0.0000   0.0000
     0.0000   0.0000   0.0000   0.0000

          k = 0.3333 1.0000 0.3333 (  1141 PWs)   bands (ev):

    -2.6033  -0.6897   1.6081   3.9370   7.5724  11.7861  12.5029  13.0496
    13.3794  13.7017  20.2541  20.8230  21.5166  21.6321  22.5373  23.3440
    24.0504  25.6799  27.9079  28.4934

     occupation numbers 
     1.0000   1.0000   1.0000   1.0000   0.0000   0.0000   0.0000   0.0000
     0.0000   0.0000   0.0000   0.0000   0.0000   0.0000   0.0000   0.0000
     0.0000   0.0000   0.0000   0.0000

          k = 0.1667 1.1667 0.1667 (  1149 PWs)   bands (ev):

    -2.8059  -0.4801   2.3987   3.4928   7.0649   8.7216  13.4489  13.4669
    16.5437  16.6953  18.3281  18.7047  20.5926  21.6397  21.8908  24.3998
    24.5828  25.2881  26.3614  28.2146

     occupation numbers 
     1.0000   1.0000   1.0000   1.0000   0.0000   0.0000   0.0000   0.0000
     0.0000   0.0000   0.0000   0.0000   0.0000   0.0000   0.0000   0.0000
     0.0000   0.0000   0.0000   0.0000

          k = 0.0000 1.3333 0.0000 (  1150 PWs)   bands (ev):

    -3.9736   1.0718   3.6297   3.6297   6.7305   7.9917  13.2663  13.2663
    15.6884  15.9367  18.9095  19.4006  19.4007  20.9850  22.1810  22.3476
    22.3477  24.5750  28.5244  30.0828

     occupation numbers 
     1.0000   1.0000   1.0000   1.0000   0.0000   0.0000   0.0000   0.0000
     0.0000   0.0000   0.0000   0.0000   0.0000   0.0000   0.0000   0.0000
     0.0000   0.0000   0.0000   0.0000

          k =-0.1667 1.5000-0.1667 (  1151 PWs)   bands (ev):

    -4.5784   1.6304   4.0545   4.3036   7.9786  10.0731  10.5337  11.1090
    15.0445  15.1213  16.3063  18.7336  19.6761  21.1380  21.9906  22.8820
    25.6024  26.4249  27.4042  29.0193

     occupation numbers 
     1.0000   1.0000   1.0000   1.0000   0.0000   0.0000   0.0000   0.0000
     0.0000   0.0000   0.0000   0.0000   0.0000   0.0000   0.0000   0.0000
     0.0000   0.0000   0.0000   0.0000

          k = 0.8333 0.8333 0.8333 (  1167 PWs)   bands (ev):

    -5.5184   3.6751   5.6018   5.6018   8.3636   9.2552   9.2552  11.3919
    13.1486  13.1486  14.9157  16.5471  19.0870  19.0870  23.0860  25.7891
    25.7891  26.2393  29.5129  29.5129

     occupation numbers 
     1.0000   1.0000   1.0000   1.0000   0.0000   0.0000   0.0000   0.0000
     0.0000   0.0000   0.0000   0.0000   0.0000   0.0000   0.0000   0.0000
     0.0000   0.0000   0.0000   0.0000

          k = 0.6667 1.0000 0.6667 (  1147 PWs)   bands (ev):

    -4.9290   2.3501   3.6269   5.4880   9.0656   9.6026   9.8469  11.6358
    12.1571  15.3489  16.3399  17.4275  19.2888  21.5090  21.9387  24.4660
    26.3388  26.4935  26.9352  28.0695

     occupation numbers 
     1.0000   1.0000   1.0000   1.0000   0.0000   0.0000   0.0000   0.0000
     0.0000   0.0000   0.0000   0.0000   0.0000   0.0000   0.0000   0.0000
     0.0000   0.0000   0.0000   0.0000

          k = 0.5000 1.1667 0.5000 (  1156 PWs)   bands (ev):

    -3.7668   0.0545   2.9941   4.7543   8.4680  10.1188  10.2719  13.2409
    13.3650  15.3433  17.3812  18.6988  20.7720  21.3210  22.0939  23.7678
    25.7463  27.4734  27.9510  28.6426

     occupation numbers 
     1.0000   1.0000   1.0000   1.0000   0.0000   0.0000   0.0000   0.0000
     0.0000   0.0000   0.0000   0.0000   0.0000   0.0000   0.0000   0.0000
     0.0000   0.0000   0.0000   0.0000

          k = 0.3333 1.3333 0.3333 (  1153 PWs)   bands (ev):

    -3.3777  -0.5495   3.2681   4.2737   8.0535  10.1178  10.6622  12.4119
    15.3410  16.4811  17.6740  17.8292  18.4977  21.9727  23.6574  24.9045
    25.9369  26.3102  26.9045  28.4759

     occupation numbers 
     1.0000   1.0000   1.0000   1.0000   0.0000   0.0000   0.0000   0.0000
     0.0000   0.0000   0.0000   0.0000   0.0000   0.0000   0.0000   0.0000
     0.0000   0.0000   0.0000   0.0000

          k = 0.1667 1.5000 0.1667 (  1151 PWs)   bands (ev):

    -4.5784   1.6304   4.0545   4.3036   7.9786  10.0731  10.5337  11.1090
    15.0445  15.1213  16.3063  18.7336  19.6761  21.1380  21.9906  22.8820
    25.6024  26.4249  27.4042  29.0193

     occupation numbers 
     1.0000   1.0000   1.0000   1.0000   0.0000   0.0000   0.0000   0.0000
     0.0000   0.0000   0.0000   0.0000   0.0000   0.0000   0.0000   0.0000
     0.0000   0.0000   0.0000   0.0000

          k = 0.0000 1.6667 0.0000 (  1162 PWs)   bands (ev):

    -5.3955   4.0275   4.8578   4.8578   7.7241  10.2869  10.3809  10.3809
    12.5894  14.3399  15.5697  18.0369  18.0369  18.5596  24.1556  25.2734
    25.2734  26.5406  27.4560  29.3980

     occupation numbers 
     1.0000   1.0000   1.0000   1.0000   0.0000   0.0000   0.0000   0.0000
     0.0000   0.0000   0.0000   0.0000   0.0000   0.0000   0.0000   0.0000
     0.0000   0.0000   0.0000   0.0000

          k =-0.1667-0.1667 0.1667 (  1167 PWs)   bands (ev):

    -5.5184   3.6751   5.6018   5.6018   8.3636   9.2552   9.2552  11.3919
    13.1486  13.1486  14.9157  16.5470  19.0870  19.0870  23.0860  25.7890
    25.7891  26.2393  29.5128  29.5128

     occupation numbers 
     1.0000   1.0000   1.0000   1.0000   0.0000   0.0000   0.0000   0.0000
     0.0000   0.0000   0.0000   0.0000   0.0000   0.0000   0.0000   0.0000
     0.0000   0.0000   0.0000   0.0000

          k =-0.3333 0.0000 0.0000 (  1162 PWs)   bands (ev):

    -5.3955   4.0275   4.8578   4.8578   7.7241  10.2869  10.3809  10.3809
    12.5894  14.3399  15.5697  18.0369  18.0369  18.5596  24.1556  25.2734
    25.2734  26.5406  27.4560  29.3980

     occupation numbers 
     1.0000   1.0000   1.0000   1.0000   0.0000   0.0000   0.0000   0.0000
     0.0000   0.0000   0.0000   0.0000   0.0000   0.0000   0.0000   0.0000
     0.0000   0.0000   0.0000   0.0000

          k =-0.5000 0.1667-0.1667 (  1151 PWs)   bands (ev):

    -4.5784   1.6304   4.0545   4.3036   7.9786  10.0731  10.5337  11.1090
    15.0445  15.1213  16.3063  18.7336  19.6761  21.1380  21.9907  22.8820
    25.6024  26.4249  27.4042  29.0193

     occupation numbers 
     1.0000   1.0000   1.0000   1.0000   0.0000   0.0000   0.0000   0.0000
     0.0000   0.0000   0.0000   0.0000   0.0000   0.0000   0.0000   0.0000
     0.0000   0.0000   0.0000   0.0000

          k =-0.6667 0.3333-0.3333 (  1153 PWs)   bands (ev):

    -3.3777  -0.5495   3.2680   4.2737   8.0535  10.1178  10.6622  12.4119
    15.3410  16.4811  17.6740  17.8292  18.4977  21.9727  23.6574  24.9045
    25.9369  26.3102  26.9045  28.4760

     occupation numbers 
     1.0000   1.0000   1.0000   1.0000   0.0000   0.0000   0.0000   0.0000
     0.0000   0.0000   0.0000   0.0000   0.0000   0.0000   0.0000   0.0000
     0.0000   0.0000   0.0000   0.0000

          k =-0.8333 0.5000-0.5000 (  1156 PWs)   bands (ev):

    -3.7668   0.0545   2.9941   4.7543   8.4680  10.1188  10.2719  13.2409
    13.3650  15.3433  17.3812  18.6988  20.7720  21.3210  22.0939  23.7678
    25.7463  27.4734  27.9510  28.6426

     occupation numbers 
     1.0000   1.0000   1.0000   1.0000   0.0000   0.0000   0.0000   0.0000
     0.0000   0.0000   0.0000   0.0000   0.0000   0.0000   0.0000   0.0000
     0.0000   0.0000   0.0000   0.0000

          k =-1.0000 0.6667-0.6667 (  1147 PWs)   bands (ev):

    -4.9290   2.3501   3.6269   5.4880   9.0656   9.6026   9.8469  11.6358
    12.1571  15.3489  16.3398  17.4275  19.2888  21.5091  21.9387  24.4660
    26.3387  26.4935  26.9352  28.0695

     occupation numbers 
     1.0000   1.0000   1.0000   1.0000   0.0000   0.0000   0.0000   0.0000
     0.0000   0.0000   0.0000   0.0000   0.0000   0.0000   0.0000   0.0000
     0.0000   0.0000   0.0000   0.0000

          k = 0.0000 0.0000 0.3333 (  1162 PWs)   bands (ev):

    -5.3955   4.0275   4.8578   4.8578   7.7241  10.2869  10.3809  10.3809
    12.5894  14.3399  15.5697  18.0369  18.0369  18.5596  24.1556  25.2734
    25.2734  26.5406  27.4560  29.3980

     occupation numbers 
     1.0000   1.0000   1.0000   1.0000   0.0000   0.0000   0.0000   0.0000
     0.0000   0.0000   0.0000   0.0000   0.0000   0.0000   0.0000   0.0000
     0.0000   0.0000   0.0000   0.0000

          k =-0.1667 0.1667 0.1667 (  1167 PWs)   bands (ev):

    -5.5184   3.6750   5.6018   5.6018   8.3636   9.2552   9.2552  11.3919
    13.1486  13.1486  14.9157  16.5471  19.0870  19.0870  23.0860  25.7890
    25.7891  26.2392  29.5128  29.5128

     occupation numbers 
     1.0000   1.0000   1.0000   1.0000   0.0000   0.0000   0.0000   0.0000
     0.0000   0.0000   0.0000   0.0000   0.0000   0.0000   0.0000   0.0000
     0.0000   0.0000   0.0000   0.0000

          k =-0.3333 0.3333 0.0000 (  1147 PWs)   bands (ev):

    -4.9290   2.3501   3.6269   5.4880   9.0656   9.6026   9.8469  11.6358
    12.1571  15.3489  16.3399  17.4275  19.2888  21.5090  21.9387  24.4660
    26.3388  26.4935  26.9352  28.0695

     occupation numbers 
     1.0000   1.0000   1.0000   1.0000   0.0000   0.0000   0.0000   0.0000
     0.0000   0.0000   0.0000   0.0000   0.0000   0.0000   0.0000   0.0000
     0.0000   0.0000   0.0000   0.0000

          k =-0.5000 0.5000-0.1667 (  1156 PWs)   bands (ev):

    -3.7668   0.0545   2.9941   4.7543   8.4680  10.1188  10.2719  13.2409
    13.3650  15.3433  17.3812  18.6988  20.7720  21.3210  22.0939  23.7678
    25.7463  27.4735  27.9510  28.6426

     occupation numbers 
     1.0000   1.0000   1.0000   1.0000   0.0000   0.0000   0.0000   0.0000
     0.0000   0.0000   0.0000   0.0000   0.0000   0.0000   0.0000   0.0000
     0.0000   0.0000   0.0000   0.0000

          k =-0.6667 0.6667-0.3333 (  1153 PWs)   bands (ev):

    -3.3777  -0.5495   3.2680   4.2737   8.0535  10.1178  10.6622  12.4119
    15.3410  16.4811  17.6740  17.8292  18.4977  21.9727  23.6574  24.9045
    25.9369  26.3103  26.9045  28.4760

     occupation numbers 
     1.0000   1.0000   1.0000   1.0000   0.0000   0.0000   0.0000   0.0000
     0.0000   0.0000   0.0000   0.0000   0.0000   0.0000   0.0000   0.0000
     0.0000   0.0000   0.0000   0.0000

          k =-0.8333 0.8333-0.5000 (  1151 PWs)   bands (ev):

    -4.5784   1.6304   4.0545   4.3036   7.9786  10.0731  10.5337  11.1090
    15.0445  15.1213  16.3063  18.7336  19.6761  21.1380  21.9906  22.8820
    25.6024  26.4249  27.4042  29.0193

     occupation numbers 
     1.0000   1.0000   1.0000   1.0000   0.0000   0.0000   0.0000   0.0000
     0.0000   0.0000   0.0000   0.0000   0.0000   0.0000   0.0000   0.0000
     0.0000   0.0000   0.0000   0.0000

          k = 0.1667 0.1667 0.5000 (  1151 PWs)   bands (ev):

    -4.5784   1.6304   4.0545   4.3036   7.9786  10.0731  10.5337  11.1090
    15.0446  15.1213  16.3063  18.7336  19.6761  21.1380  21.9907  22.8820
    25.6024  26.4249  27.4042  29.0194

     occupation numbers 
     1.0000   1.0000   1.0000   1.0000   0.0000   0.0000   0.0000   0.0000
     0.0000   0.0000   0.0000   0.0000   0.0000   0.0000   0.0000   0.0000
     0.0000   0.0000   0.0000   0.0000

          k =-0.0000 0.3333 0.3333 (  1147 PWs)   bands (ev):

    -4.9290   2.3501   3.6269   5.4880   9.0656   9.6026   9.8469  11.6358
    12.1571  15.3489  16.3398  17.4275  19.2888  21.5090  21.9387  24.4660
    26.3388  26.4935  26.9352  28.0695

     occupation numbers 
     1.0000   1.0000   1.0000   1.0000   0.0000   0.0000   0.0000   0.0000
     0.0000   0.0000   0.0000   0.0000   0.0000   0.0000   0.0000   0.0000
     0.0000   0.0000   0.0000   0.0000

          k =-0.1667 0.5000 0.1667 (  1151 PWs)   bands (ev):

    -4.5784   1.6304   4.0545   4.3036   7.9786  10.0731  10.5337  11.1090
    15.0445  15.1213  16.3063  18.7336  19.6761  21.1380  21.9906  22.8820
    25.6024  26.4249  27.4042  29.0193

     occupation numbers 
     1.0000   1.0000   1.0000   1.0000   0.0000   0.0000   0.0000   0.0000
     0.0000   0.0000   0.0000   0.0000   0.0000   0.0000   0.0000   0.0000
     0.0000   0.0000   0.0000   0.0000

          k =-0.3333 0.6667 0.0000 (  1151 PWs)   bands (ev):

    -3.5854   0.4371   2.4621   3.7481   8.8653   9.7144  10.2512  13.0653
    14.9886  15.8608  18.8816  19.1575  19.7953  20.7904  22.4781  23.6517
    25.3262  26.6755  26.8978  28.5128

     occupation numbers 
     1.0000   1.0000   1.0000   1.0000   0.0000   0.0000   0.0000   0.0000
     0.0000   0.0000   0.0000   0.0000   0.0000   0.0000   0.0000   0.0000
     0.0000   0.0000   0.0000   0.0000

          k =-0.5000 0.8333-0.1667 (  1152 PWs)   bands (ev):

    -2.5926  -0.7677   2.0206   3.2765   9.3581   9.5717  12.0914  12.5176
    13.5506  17.0550  17.8976  19.3713  22.1035  22.6990  22.8523  23.6679
    24.3303  26.2347  26.6438  27.4746

     occupation numbers 
     1.0000   1.0000   1.0000   1.0000   0.0000   0.0000   0.0000   0.0000
     0.0000   0.0000   0.0000   0.0000   0.0000   0.0000   0.0000   0.0000
     0.0000   0.0000   0.0000   0.0000

          k =-0.6667 1.0000-0.3333 (  1151 PWs)   bands (ev):

    -3.5854   0.4371   2.4621   3.7481   8.8653   9.7144  10.2512  13.0653
    14.9886  15.8608  18.8816  19.1575  19.7953  20.7904  22.4781  23.6517
    25.3262  26.6755  26.8978  28.5129

     occupation numbers 
     1.0000   1.0000   1.0000   1.0000   0.0000   0.0000   0.0000   0.0000
     0.0000   0.0000   0.0000   0.0000   0.0000   0.0000   0.0000   0.0000
     0.0000   0.0000   0.0000   0.0000

          k = 0.3333 0.3333 0.6667 (  1153 PWs)   bands (ev):

    -3.3777  -0.5495   3.2680   4.2737   8.0535  10.1178  10.6622  12.4119
    15.3410  16.4811  17.6740  17.8292  18.4977  21.9727  23.6574  24.9045
    25.9370  26.3103  26.9045  28.4760

     occupation numbers 
     1.0000   1.0000   1.0000   1.0000   0.0000   0.0000   0.0000   0.0000
     0.0000   0.0000   0.0000   0.0000   0.0000   0.0000   0.0000   0.0000
     0.0000   0.0000   0.0000   0.0000

          k = 0.1667 0.5000 0.5000 (  1156 PWs)   bands (ev):

    -3.7668   0.0545   2.9941   4.7543   8.4680  10.1188  10.2719  13.2409
    13.3650  15.3433  17.3812  18.6988  20.7720  21.3210  22.0939  23.7678
    25.7464  27.4736  27.9510  28.6426

     occupation numbers 
     1.0000   1.0000   1.0000   1.0000   0.0000   0.0000   0.0000   0.0000
     0.0000   0.0000   0.0000   0.0000   0.0000   0.0000   0.0000   0.0000
     0.0000   0.0000   0.0000   0.0000

          k = 0.0000 0.6667 0.3333 (  1151 PWs)   bands (ev):

    -3.5854   0.4371   2.4621   3.7481   8.8653   9.7144  10.2512  13.0653
    14.9886  15.8608  18.8816  19.1575  19.7953  20.7903  22.4782  23.6517
    25.3262  26.6755  26.8978  28.5128

     occupation numbers 
     1.0000   1.0000   1.0000   1.0000   0.0000   0.0000   0.0000   0.0000
     0.0000   0.0000   0.0000   0.0000   0.0000   0.0000   0.0000   0.0000
     0.0000   0.0000   0.0000   0.0000

          k =-0.1667 0.8333 0.1667 (  1149 PWs)   bands (ev):

    -2.8059  -0.4801   2.3987   3.4928   7.0649   8.7216  13.4489  13.4669
    16.5437  16.6953  18.3281  18.7047  20.5926  21.6397  21.8908  24.3998
    24.5828  25.2882  26.3613  28.2147

     occupation numbers 
     1.0000   1.0000   1.0000   1.0000   0.0000   0.0000   0.0000   0.0000
     0.0000   0.0000   0.0000   0.0000   0.0000   0.0000   0.0000   0.0000
     0.0000   0.0000   0.0000   0.0000

          k =-0.3333 1.0000 0.0000 (  1154 PWs)   bands (ev):

    -1.6069  -1.6069   2.3849   2.3849   8.7539   8.7539  12.7579  12.7579
    16.5278  16.5278  18.8846  18.8846  22.3360  22.3360  23.0807  23.0807
    24.5791  24.5791  27.1166  27.1166

     occupation numbers 
     1.0000   1.0000   1.0000   1.0000   0.0000   0.0000   0.0000   0.0000
     0.0000   0.0000   0.0000   0.0000   0.0000   0.0000   0.0000   0.0000
     0.0000   0.0000   0.0000   0.0000

          k =-0.5000 1.1667-0.1667 (  1152 PWs)   bands (ev):

    -2.5926  -0.7677   2.0206   3.2765   9.3581   9.5717  12.0914  12.5176
    13.5506  17.0550  17.8976  19.3713  22.1035  22.6990  22.8523  23.6678
    24.3303  26.2347  26.6438  27.4746

     occupation numbers 
     1.0000   1.0000   1.0000   1.0000   0.0000   0.0000   0.0000   0.0000
     0.0000   0.0000   0.0000   0.0000   0.0000   0.0000   0.0000   0.0000
     0.0000   0.0000   0.0000   0.0000

          k = 0.5000 0.5000 0.8333 (  1156 PWs)   bands (ev):

    -3.7668   0.0545   2.9941   4.7543   8.4680  10.1188  10.2719  13.2409
    13.3650  15.3433  17.3812  18.6988  20.7719  21.3210  22.0939  23.7678
    25.7463  27.4734  27.9510  28.6426

     occupation numbers 
     1.0000   1.0000   1.0000   1.0000   0.0000   0.0000   0.0000   0.0000
     0.0000   0.0000   0.0000   0.0000   0.0000   0.0000   0.0000   0.0000
     0.0000   0.0000   0.0000   0.0000

          k = 0.3333 0.6667 0.6667 (  1153 PWs)   bands (ev):

    -3.3777  -0.5495   3.2680   4.2737   8.0535  10.1178  10.6622  12.4119
    15.3410  16.4811  17.6740  17.8292  18.4977  21.9727  23.6574  24.9045
    25.9369  26.3103  26.9045  28.4760

     occupation numbers 
     1.0000   1.0000   1.0000   1.0000   0.0000   0.0000   0.0000   0.0000
     0.0000   0.0000   0.0000   0.0000   0.0000   0.0000   0.0000   0.0000
     0.0000   0.0000   0.0000   0.0000

          k = 0.1667 0.8333 0.5000 (  1152 PWs)   bands (ev):

    -2.5926  -0.7677   2.0206   3.2765   9.3581   9.5717  12.0914  12.5176
    13.5506  17.0550  17.8976  19.3713  22.1035  22.6990  22.8523  23.6678
    24.3303  26.2347  26.6438  27.4745

     occupation numbers 
     1.0000   1.0000   1.0000   1.0000   0.0000   0.0000   0.0000   0.0000
     0.0000   0.0000   0.0000   0.0000   0.0000   0.0000   0.0000   0.0000
     0.0000   0.0000   0.0000   0.0000

          k = 0.0000 1.0000 0.3333 (  1154 PWs)   bands (ev):

    -1.6069  -1.6069   2.3849   2.3849   8.7539   8.7539  12.7579  12.7579
    16.5278  16.5278  18.8846  18.8846  22.3360  22.3360  23.0807  23.0807
    24.5791  24.5791  27.1166  27.1166

     occupation numbers 
     1.0000   1.0000   1.0000   1.0000   0.0000   0.0000   0.0000   0.0000
     0.0000   0.0000   0.0000   0.0000   0.0000   0.0000   0.0000   0.0000
     0.0000   0.0000   0.0000   0.0000

          k =-0.1667 1.1667 0.1667 (  1149 PWs)   bands (ev):

    -2.8059  -0.4801   2.3987   3.4928   7.0649   8.7216  13.4489  13.4669
    16.5437  16.6953  18.3281  18.7047  20.5926  21.6397  21.8908  24.3998
    24.5828  25.2881  26.3613  28.2146

     occupation numbers 
     1.0000   1.0000   1.0000   1.0000   0.0000   0.0000   0.0000   0.0000
     0.0000   0.0000   0.0000   0.0000   0.0000   0.0000   0.0000   0.0000
     0.0000   0.0000   0.0000   0.0000

          k =-0.3333 1.3333 0.0000 (  1151 PWs)   bands (ev):

    -3.5854   0.4371   2.4621   3.7481   8.8653   9.7144  10.2512  13.0653
    14.9886  15.8608  18.8816  19.1575  19.7953  20.7903  22.4781  23.6517
    25.3262  26.6755  26.8978  28.5128

     occupation numbers 
     1.0000   1.0000   1.0000   1.0000   0.0000   0.0000   0.0000   0.0000
     0.0000   0.0000   0.0000   0.0000   0.0000   0.0000   0.0000   0.0000
     0.0000   0.0000   0.0000   0.0000

          k = 0.6667 0.6667 1.0000 (  1147 PWs)   bands (ev):

    -4.9290   2.3501   3.6269   5.4880   9.0656   9.6026   9.8469  11.6358
    12.1571  15.3489  16.3399  17.4275  19.2888  21.5090  21.9387  24.4660
    26.3387  26.4935  26.9352  28.0695

     occupation numbers 
     1.0000   1.0000   1.0000   1.0000   0.0000   0.0000   0.0000   0.0000
     0.0000   0.0000   0.0000   0.0000   0.0000   0.0000   0.0000   0.0000
     0.0000   0.0000   0.0000   0.0000

          k = 0.5000 0.8333 0.8333 (  1151 PWs)   bands (ev):

    -4.5784   1.6304   4.0545   4.3036   7.9786  10.0731  10.5337  11.1090
    15.0445  15.1213  16.3063  18.7336  19.6761  21.1380  21.9906  22.8820
    25.6024  26.4250  27.4043  29.0193

     occupation numbers 
     1.0000   1.0000   1.0000   1.0000   0.0000   0.0000   0.0000   0.0000
     0.0000   0.0000   0.0000   0.0000   0.0000   0.0000   0.0000   0.0000
     0.0000   0.0000   0.0000   0.0000

          k = 0.3333 1.0000 0.6667 (  1151 PWs)   bands (ev):

    -3.5854   0.4371   2.4621   3.7481   8.8653   9.7144  10.2512  13.0653
    14.9886  15.8608  18.8816  19.1575  19.7953  20.7904  22.4781  23.6517
    25.3262  26.6755  26.8978  28.5128

     occupation numbers 
     1.0000   1.0000   1.0000   1.0000   0.0000   0.0000   0.0000   0.0000
     0.0000   0.0000   0.0000   0.0000   0.0000   0.0000   0.0000   0.0000
     0.0000   0.0000   0.0000   0.0000

          k = 0.1667 1.1667 0.5000 (  1152 PWs)   bands (ev):

    -2.5926  -0.7677   2.0206   3.2765   9.3581   9.5717  12.0914  12.5176
    13.5506  17.0550  17.8976  19.3713  22.1035  22.6990  22.8523  23.6678
    24.3303  26.2347  26.6438  27.4746

     occupation numbers 
     1.0000   1.0000   1.0000   1.0000   0.0000   0.0000   0.0000   0.0000
     0.0000   0.0000   0.0000   0.0000   0.0000   0.0000   0.0000   0.0000
     0.0000   0.0000   0.0000   0.0000

          k =-0.0000 1.3333 0.3333 (  1151 PWs)   bands (ev):

    -3.5854   0.4371   2.4621   3.7481   8.8653   9.7144  10.2512  13.0653
    14.9886  15.8608  18.8816  19.1575  19.7953  20.7904  22.4781  23.6517
    25.3262  26.6755  26.8978  28.5128

     occupation numbers 
     1.0000   1.0000   1.0000   1.0000   0.0000   0.0000   0.0000   0.0000
     0.0000   0.0000   0.0000   0.0000   0.0000   0.0000   0.0000   0.0000
     0.0000   0.0000   0.0000   0.0000

          k =-0.1667 1.5000 0.1667 (  1151 PWs)   bands (ev):

    -4.5784   1.6304   4.0545   4.3036   7.9786  10.0731  10.5337  11.1090
    15.0445  15.1213  16.3063  18.7336  19.6761  21.1380  21.9906  22.8820
    25.6024  26.4249  27.4042  29.0193

     occupation numbers 
     1.0000   1.0000   1.0000   1.0000   0.0000   0.0000   0.0000   0.0000
     0.0000   0.0000   0.0000   0.0000   0.0000   0.0000   0.0000   0.0000
     0.0000   0.0000   0.0000   0.0000

          k =-0.3333-0.3333 0.3333 (  1149 PWs)   bands (ev):

    -4.4992   0.7206   5.0517   5.0517   7.7695   9.5516   9.5516  13.7642
    14.0248  14.0249  14.9586  19.4336  20.5444  20.5444  22.4757  23.6145
    23.6145  27.6250  29.6284  29.6284

     occupation numbers 
     1.0000   1.0000   1.0000   1.0000   0.0000   0.0000   0.0000   0.0000
     0.0000   0.0000   0.0000   0.0000   0.0000   0.0000   0.0000   0.0000
     0.0000   0.0000   0.0000   0.0000

          k =-0.5000-0.1667 0.1667 (  1151 PWs)   bands (ev):

    -4.5784   1.6304   4.0545   4.3036   7.9786  10.0731  10.5337  11.1090
    15.0445  15.1213  16.3063  18.7336  19.6761  21.1380  21.9906  22.8820
    25.6024  26.4249  27.4042  29.0193

     occupation numbers 
     1.0000   1.0000   1.0000   1.0000   0.0000   0.0000   0.0000   0.0000
     0.0000   0.0000   0.0000   0.0000   0.0000   0.0000   0.0000   0.0000
     0.0000   0.0000   0.0000   0.0000

          k =-0.6667 0.0000 0.0000 (  1150 PWs)   bands (ev):

    -3.9736   1.0718   3.6297   3.6297   6.7305   7.9917  13.2663  13.2663
    15.6884  15.9367  18.9095  19.4006  19.4006  20.9850  22.1810  22.3477
    22.3477  24.5749  28.5244  30.0828

     occupation numbers 
     1.0000   1.0000   1.0000   1.0000   0.0000   0.0000   0.0000   0.0000
     0.0000   0.0000   0.0000   0.0000   0.0000   0.0000   0.0000   0.0000
     0.0000   0.0000   0.0000   0.0000

          k =-0.8333 0.1667-0.1667 (  1149 PWs)   bands (ev):

    -2.8059  -0.4801   2.3987   3.4928   7.0649   8.7216  13.4489  13.4669
    16.5437  16.6953  18.3281  18.7048  20.5926  21.6397  21.8908  24.3998
    24.5828  25.2881  26.3613  28.2147

     occupation numbers 
     1.0000   1.0000   1.0000   1.0000   0.0000   0.0000   0.0000   0.0000
     0.0000   0.0000   0.0000   0.0000   0.0000   0.0000   0.0000   0.0000
     0.0000   0.0000   0.0000   0.0000

          k =-1.0000 0.3333-0.3333 (  1141 PWs)   bands (ev):

    -2.6033  -0.6897   1.6081   3.9370   7.5724  11.7861  12.5029  13.0496
    13.3794  13.7017  20.2541  20.8229  21.5166  21.6321  22.5373  23.3440
    24.0504  25.6799  27.9078  28.4935

     occupation numbers 
     1.0000   1.0000   1.0000   1.0000   0.0000   0.0000   0.0000   0.0000
     0.0000   0.0000   0.0000   0.0000   0.0000   0.0000   0.0000   0.0000
     0.0000   0.0000   0.0000   0.0000

          k =-1.1667 0.5000-0.5000 (  1156 PWs)   bands (ev):

    -3.7668   0.0545   2.9941   4.7543   8.4680  10.1188  10.2719  13.2409
    13.3650  15.3433  17.3811  18.6988  20.7720  21.3210  22.0939  23.7678
    25.7463  27.4734  27.9510  28.6426

     occupation numbers 
     1.0000   1.0000   1.0000   1.0000   0.0000   0.0000   0.0000   0.0000
     0.0000   0.0000   0.0000   0.0000   0.0000   0.0000   0.0000   0.0000
     0.0000   0.0000   0.0000   0.0000

          k =-0.1667-0.1667 0.5000 (  1151 PWs)   bands (ev):

    -4.5784   1.6304   4.0545   4.3036   7.9786  10.0731  10.5337  11.1090
    15.0445  15.1213  16.3063  18.7336  19.6761  21.1380  21.9906  22.8820
    25.6024  26.4249  27.4042  29.0193

     occupation numbers 
     1.0000   1.0000   1.0000   1.0000   0.0000   0.0000   0.0000   0.0000
     0.0000   0.0000   0.0000   0.0000   0.0000   0.0000   0.0000   0.0000
     0.0000   0.0000   0.0000   0.0000

          k =-0.3333 0.0000 0.3333 (  1147 PWs)   bands (ev):

    -4.9290   2.3501   3.6269   5.4880   9.0656   9.6026   9.8469  11.6358
    12.1571  15.3489  16.3399  17.4275  19.2888  21.5090  21.9387  24.4660
    26.3387  26.4936  26.9352  28.0695

     occupation numbers 
     1.0000   1.0000   1.0000   1.0000   0.0000   0.0000   0.0000   0.0000
     0.0000   0.0000   0.0000   0.0000   0.0000   0.0000   0.0000   0.0000
     0.0000   0.0000   0.0000   0.0000

          k =-0.5000 0.1667 0.1667 (  1151 PWs)   bands (ev):

    -4.5784   1.6304   4.0545   4.3036   7.9786  10.0731  10.5337  11.1090
    15.0445  15.1213  16.3064  18.7337  19.6761  21.1380  21.9906  22.8820
    25.6024  26.4249  27.4042  29.0194

     occupation numbers 
     1.0000   1.0000   1.0000   1.0000   0.0000   0.0000   0.0000   0.0000
     0.0000   0.0000   0.0000   0.0000   0.0000   0.0000   0.0000   0.0000
     0.0000   0.0000   0.0000   0.0000

          k =-0.6667 0.3333 0.0000 (  1151 PWs)   bands (ev):

    -3.5854   0.4371   2.4621   3.7481   8.8653   9.7144  10.2512  13.0653
[...]
    25.7891  26.2393  29.5128  29.5128

     occupation numbers 
     1.0000   1.0000   1.0000   1.0000   0.0000   0.0000   0.0000   0.0000
     0.0000   0.0000   0.0000   0.0000   0.0000   0.0000   0.0000   0.0000
     0.0000   0.0000   0.0000   0.0000

          k =-1.0000-0.6667 0.6667 (  1147 PWs)   bands (ev):

    -4.9290   2.3501   3.6269   5.4880   9.0656   9.6026   9.8469  11.6358
    12.1571  15.3489  16.3399  17.4275  19.2888  21.5090  21.9387  24.4660
    26.3388  26.4936  26.9353  28.0695

     occupation numbers 
     1.0000   1.0000   1.0000   1.0000   0.0000   0.0000   0.0000   0.0000
     0.0000   0.0000   0.0000   0.0000   0.0000   0.0000   0.0000   0.0000
     0.0000   0.0000   0.0000   0.0000

          k =-1.1667-0.5000 0.5000 (  1156 PWs)   bands (ev):

    -3.7668   0.0545   2.9941   4.7543   8.4680  10.1188  10.2719  13.2409
    13.3650  15.3433  17.3811  18.6988  20.7720  21.3210  22.0939  23.7678
    25.7464  27.4734  27.9510  28.6426

     occupation numbers 
     1.0000   1.0000   1.0000   1.0000   0.0000   0.0000   0.0000   0.0000
     0.0000   0.0000   0.0000   0.0000   0.0000   0.0000   0.0000   0.0000
     0.0000   0.0000   0.0000   0.0000

          k =-1.3333-0.3333 0.3333 (  1153 PWs)   bands (ev):

    -3.3777  -0.5495   3.2680   4.2737   8.0535  10.1178  10.6622  12.4119
    15.3410  16.4811  17.6740  17.8292  18.4977  21.9727  23.6574  24.9045
    25.9369  26.3102  26.9045  28.4759

     occupation numbers 
     1.0000   1.0000   1.0000   1.0000   0.0000   0.0000   0.0000   0.0000
     0.0000   0.0000   0.0000   0.0000   0.0000   0.0000   0.0000   0.0000
     0.0000   0.0000   0.0000   0.0000

          k =-1.5000-0.1667 0.1667 (  1151 PWs)   bands (ev):

    -4.5784   1.6304   4.0545   4.3036   7.9786  10.0731  10.5337  11.1090
    15.0445  15.1213  16.3063  18.7336  19.6761  21.1380  21.9906  22.8820
    25.6024  26.4249  27.4042  29.0193

     occupation numbers 
     1.0000   1.0000   1.0000   1.0000   0.0000   0.0000   0.0000   0.0000
     0.0000   0.0000   0.0000   0.0000   0.0000   0.0000   0.0000   0.0000
     0.0000   0.0000   0.0000   0.0000

          k =-1.6667 0.0000 0.0000 (  1162 PWs)   bands (ev):

    -5.3955   4.0275   4.8578   4.8578   7.7241  10.2869  10.3809  10.3809
    12.5894  14.3399  15.5697  18.0369  18.0369  18.5596  24.1556  25.2734
    25.2734  26.5406  27.4560  29.3980

     occupation numbers 
     1.0000   1.0000   1.0000   1.0000   0.0000   0.0000   0.0000   0.0000
     0.0000   0.0000   0.0000   0.0000   0.0000   0.0000   0.0000   0.0000
     0.0000   0.0000   0.0000   0.0000

          k =-0.6667-0.6667 1.0000 (  1147 PWs)   bands (ev):

    -4.9290   2.3501   3.6269   5.4880   9.0656   9.6026   9.8469  11.6358
    12.1571  15.3489  16.3399  17.4275  19.2888  21.5091  21.9387  24.4660
    26.3388  26.4935  26.9352  28.0695

     occupation numbers 
     1.0000   1.0000   1.0000   1.0000   0.0000   0.0000   0.0000   0.0000
     0.0000   0.0000   0.0000   0.0000   0.0000   0.0000   0.0000   0.0000
     0.0000   0.0000   0.0000   0.0000

          k =-0.8333-0.5000 0.8333 (  1151 PWs)   bands (ev):

    -4.5784   1.6304   4.0545   4.3036   7.9786  10.0731  10.5337  11.1090
    15.0445  15.1213  16.3063  18.7336  19.6761  21.1380  21.9906  22.8820
    25.6024  26.4249  27.4042  29.0194

     occupation numbers 
     1.0000   1.0000   1.0000   1.0000   0.0000   0.0000   0.0000   0.0000
     0.0000   0.0000   0.0000   0.0000   0.0000   0.0000   0.0000   0.0000
     0.0000   0.0000   0.0000   0.0000

          k =-1.0000-0.3333 0.6667 (  1151 PWs)   bands (ev):

    -3.5854   0.4371   2.4621   3.7481   8.8653   9.7144  10.2512  13.0653
    14.9886  15.8608  18.8816  19.1575  19.7953  20.7904  22.4781  23.6517
    25.3263  26.6755  26.8978  28.5128

     occupation numbers 
     1.0000   1.0000   1.0000   1.0000   0.0000   0.0000   0.0000   0.0000
     0.0000   0.0000   0.0000   0.0000   0.0000   0.0000   0.0000   0.0000
     0.0000   0.0000   0.0000   0.0000

          k =-1.1667-0.1667 0.5000 (  1152 PWs)   bands (ev):

    -2.5926  -0.7677   2.0206   3.2765   9.3581   9.5717  12.0914  12.5176
    13.5506  17.0550  17.8976  19.3713  22.1035  22.6990  22.8523  23.6678
    24.3303  26.2347  26.6438  27.4746

     occupation numbers 
     1.0000   1.0000   1.0000   1.0000   0.0000   0.0000   0.0000   0.0000
     0.0000   0.0000   0.0000   0.0000   0.0000   0.0000   0.0000   0.0000
     0.0000   0.0000   0.0000   0.0000

          k =-1.3333 0.0000 0.3333 (  1151 PWs)   bands (ev):

    -3.5854   0.4371   2.4621   3.7481   8.8653   9.7144  10.2512  13.0653
    14.9886  15.8608  18.8816  19.1575  19.7953  20.7904  22.4781  23.6517
    25.3262  26.6755  26.8978  28.5128

     occupation numbers 
     1.0000   1.0000   1.0000   1.0000   0.0000   0.0000   0.0000   0.0000
     0.0000   0.0000   0.0000   0.0000   0.0000   0.0000   0.0000   0.0000
     0.0000   0.0000   0.0000   0.0000

          k =-1.5000 0.1667 0.1667 (  1151 PWs)   bands (ev):

    -4.5784   1.6304   4.0545   4.3036   7.9786  10.0731  10.5337  11.1090
    15.0445  15.1213  16.3063  18.7336  19.6761  21.1380  21.9906  22.8820
    25.6024  26.4249  27.4042  29.0193

     occupation numbers 
     1.0000   1.0000   1.0000   1.0000   0.0000   0.0000   0.0000   0.0000
     0.0000   0.0000   0.0000   0.0000   0.0000   0.0000   0.0000   0.0000
     0.0000   0.0000   0.0000   0.0000

          k =-0.5000-0.5000 1.1667 (  1156 PWs)   bands (ev):

    -3.7668   0.0545   2.9941   4.7543   8.4680  10.1188  10.2719  13.2409
    13.3650  15.3433  17.3811  18.6988  20.7720  21.3210  22.0939  23.7678
    25.7464  27.4735  27.9510  28.6426

     occupation numbers 
     1.0000   1.0000   1.0000   1.0000   0.0000   0.0000   0.0000   0.0000
     0.0000   0.0000   0.0000   0.0000   0.0000   0.0000   0.0000   0.0000
     0.0000   0.0000   0.0000   0.0000

          k =-0.6667-0.3333 1.0000 (  1151 PWs)   bands (ev):

    -3.5854   0.4371   2.4621   3.7481   8.8653   9.7144  10.2512  13.0653
    14.9886  15.8608  18.8816  19.1575  19.7953  20.7904  22.4782  23.6517
    25.3262  26.6755  26.8978  28.5128

     occupation numbers 
     1.0000   1.0000   1.0000   1.0000   0.0000   0.0000   0.0000   0.0000
     0.0000   0.0000   0.0000   0.0000   0.0000   0.0000   0.0000   0.0000
     0.0000   0.0000   0.0000   0.0000

          k =-0.8333-0.1667 0.8333 (  1149 PWs)   bands (ev):

    -2.8059  -0.4801   2.3987   3.4928   7.0649   8.7216  13.4489  13.4669
    16.5437  16.6953  18.3281  18.7048  20.5926  21.6397  21.8908  24.3998
    24.5828  25.2881  26.3613  28.2147

     occupation numbers 
     1.0000   1.0000   1.0000   1.0000   0.0000   0.0000   0.0000   0.0000
     0.0000   0.0000   0.0000   0.0000   0.0000   0.0000   0.0000   0.0000
     0.0000   0.0000   0.0000   0.0000

          k =-1.0000 0.0000 0.6667 (  1154 PWs)   bands (ev):

    -1.6069  -1.6069   2.3849   2.3849   8.7539   8.7539  12.7579  12.7579
    16.5278  16.5278  18.8846  18.8846  22.3360  22.3360  23.0807  23.0807
    24.5791  24.5791  27.1165  27.1166

     occupation numbers 
     1.0000   1.0000   1.0000   1.0000   0.0000   0.0000   0.0000   0.0000
     0.0000   0.0000   0.0000   0.0000   0.0000   0.0000   0.0000   0.0000
     0.0000   0.0000   0.0000   0.0000

          k =-1.1667 0.1667 0.5000 (  1152 PWs)   bands (ev):

    -2.5926  -0.7677   2.0206   3.2765   9.3581   9.5717  12.0914  12.5176
    13.5506  17.0550  17.8976  19.3713  22.1035  22.6990  22.8523  23.6679
    24.3303  26.2348  26.6438  27.4746

     occupation numbers 
     1.0000   1.0000   1.0000   1.0000   0.0000   0.0000   0.0000   0.0000
     0.0000   0.0000   0.0000   0.0000   0.0000   0.0000   0.0000   0.0000
     0.0000   0.0000   0.0000   0.0000

          k =-1.3333 0.3333 0.3333 (  1153 PWs)   bands (ev):

    -3.3777  -0.5495   3.2680   4.2737   8.0535  10.1178  10.6622  12.4119
    15.3410  16.4811  17.6740  17.8292  18.4977  21.9727  23.6574  24.9045
    25.9370  26.3102  26.9045  28.4759

     occupation numbers 
     1.0000   1.0000   1.0000   1.0000   0.0000   0.0000   0.0000   0.0000
     0.0000   0.0000   0.0000   0.0000   0.0000   0.0000   0.0000   0.0000
     0.0000   0.0000   0.0000   0.0000

          k =-0.3333-0.3333 1.3333 (  1153 PWs)   bands (ev):

    -3.3777  -0.5495   3.2680   4.2737   8.0535  10.1178  10.6622  12.4119
    15.3410  16.4811  17.6740  17.8292  18.4977  21.9727  23.6574  24.9046
    25.9369  26.3102  26.9046  28.4759

     occupation numbers 
     1.0000   1.0000   1.0000   1.0000   0.0000   0.0000   0.0000   0.0000
     0.0000   0.0000   0.0000   0.0000   0.0000   0.0000   0.0000   0.0000
     0.0000   0.0000   0.0000   0.0000

          k =-0.5000-0.1667 1.1667 (  1152 PWs)   bands (ev):

    -2.5926  -0.7677   2.0206   3.2765   9.3581   9.5717  12.0914  12.5176
    13.5506  17.0550  17.8976  19.3713  22.1035  22.6990  22.8523  23.6678
    24.3303  26.2347  26.6438  27.4746

     occupation numbers 
     1.0000   1.0000   1.0000   1.0000   0.0000   0.0000   0.0000   0.0000
     0.0000   0.0000   0.0000   0.0000   0.0000   0.0000   0.0000   0.0000
     0.0000   0.0000   0.0000   0.0000

          k =-0.6667 0.0000 1.0000 (  1154 PWs)   bands (ev):

    -1.6069  -1.6069   2.3849   2.3849   8.7539   8.7539  12.7579  12.7579
    16.5278  16.5278  18.8846  18.8846  22.3360  22.3360  23.0807  23.0807
    24.5791  24.5791  27.1165  27.1165

     occupation numbers 
     1.0000   1.0000   1.0000   1.0000   0.0000   0.0000   0.0000   0.0000
     0.0000   0.0000   0.0000   0.0000   0.0000   0.0000   0.0000   0.0000
     0.0000   0.0000   0.0000   0.0000

          k =-0.8333 0.1667 0.8333 (  1149 PWs)   bands (ev):

    -2.8059  -0.4801   2.3987   3.4928   7.0649   8.7216  13.4489  13.4669
    16.5437  16.6953  18.3281  18.7047  20.5926  21.6397  21.8908  24.3998
    24.5828  25.2881  26.3613  28.2146

     occupation numbers 
     1.0000   1.0000   1.0000   1.0000   0.0000   0.0000   0.0000   0.0000
     0.0000   0.0000   0.0000   0.0000   0.0000   0.0000   0.0000   0.0000
     0.0000   0.0000   0.0000   0.0000

          k =-1.0000 0.3333 0.6667 (  1151 PWs)   bands (ev):

    -3.5854   0.4371   2.4621   3.7481   8.8653   9.7144  10.2512  13.0653
    14.9886  15.8608  18.8816  19.1575  19.7953  20.7904  22.4781  23.6517
    25.3262  26.6756  26.8978  28.5129

     occupation numbers 
     1.0000   1.0000   1.0000   1.0000   0.0000   0.0000   0.0000   0.0000
     0.0000   0.0000   0.0000   0.0000   0.0000   0.0000   0.0000   0.0000
     0.0000   0.0000   0.0000   0.0000

          k =-1.1667 0.5000 0.5000 (  1156 PWs)   bands (ev):

    -3.7668   0.0545   2.9941   4.7543   8.4680  10.1188  10.2719  13.2409
    13.3650  15.3433  17.3811  18.6988  20.7720  21.3210  22.0939  23.7678
    25.7463  27.4734  27.9510  28.6426

     occupation numbers 
     1.0000   1.0000   1.0000   1.0000   0.0000   0.0000   0.0000   0.0000
     0.0000   0.0000   0.0000   0.0000   0.0000   0.0000   0.0000   0.0000
     0.0000   0.0000   0.0000   0.0000

          k =-0.1667-0.1667 1.5000 (  1151 PWs)   bands (ev):

    -4.5784   1.6304   4.0545   4.3036   7.9786  10.0731  10.5337  11.1090
    15.0445  15.1213  16.3063  18.7336  19.6761  21.1380  21.9906  22.8820
    25.6024  26.4249  27.4042  29.0194

     occupation numbers 
     1.0000   1.0000   1.0000   1.0000   0.0000   0.0000   0.0000   0.0000
     0.0000   0.0000   0.0000   0.0000   0.0000   0.0000   0.0000   0.0000
     0.0000   0.0000   0.0000   0.0000

          k =-0.3333 0.0000 1.3333 (  1151 PWs)   bands (ev):

    -3.5854   0.4371   2.4621   3.7481   8.8653   9.7144  10.2512  13.0653
    14.9886  15.8608  18.8816  19.1575  19.7953  20.7904  22.4781  23.6517
    25.3262  26.6755  26.8978  28.5128

     occupation numbers 
     1.0000   1.0000   1.0000   1.0000   0.0000   0.0000   0.0000   0.0000
     0.0000   0.0000   0.0000   0.0000   0.0000   0.0000   0.0000   0.0000
     0.0000   0.0000   0.0000   0.0000

          k =-0.5000 0.1667 1.1667 (  1152 PWs)   bands (ev):

    -2.5926  -0.7677   2.0206   3.2765   9.3581   9.5717  12.0914  12.5176
    13.5506  17.0550  17.8976  19.3713  22.1035  22.6990  22.8523  23.6678
    24.3303  26.2347  26.6438  27.4746

     occupation numbers 
     1.0000   1.0000   1.0000   1.0000   0.0000   0.0000   0.0000   0.0000
     0.0000   0.0000   0.0000   0.0000   0.0000   0.0000   0.0000   0.0000
     0.0000   0.0000   0.0000   0.0000

          k =-0.6667 0.3333 1.0000 (  1151 PWs)   bands (ev):

    -3.5854   0.4371   2.4621   3.7481   8.8653   9.7144  10.2512  13.0653
    14.9886  15.8608  18.8816  19.1575  19.7953  20.7904  22.4781  23.6517
    25.3262  26.6755  26.8978  28.5128

     occupation numbers 
     1.0000   1.0000   1.0000   1.0000   0.0000   0.0000   0.0000   0.0000
     0.0000   0.0000   0.0000   0.0000   0.0000   0.0000   0.0000   0.0000
     0.0000   0.0000   0.0000   0.0000

          k =-0.8333 0.5000 0.8333 (  1151 PWs)   bands (ev):

    -4.5784   1.6304   4.0545   4.3036   7.9786  10.0731  10.5337  11.1090
    15.0445  15.1213  16.3063  18.7336  19.6761  21.1380  21.9906  22.8820
    25.6024  26.4249  27.4042  29.0193

     occupation numbers 
     1.0000   1.0000   1.0000   1.0000   0.0000   0.0000   0.0000   0.0000
     0.0000   0.0000   0.0000   0.0000   0.0000   0.0000   0.0000   0.0000
     0.0000   0.0000   0.0000   0.0000

          k =-1.0000 0.6667 0.6667 (  1147 PWs)   bands (ev):

    -4.9290   2.3501   3.6269   5.4880   9.0656   9.6026   9.8469  11.6358
    12.1571  15.3489  16.3399  17.4275  19.2888  21.5090  21.9387  24.4660
    26.3388  26.4935  26.9353  28.0695

     occupation numbers 
     1.0000   1.0000   1.0000   1.0000   0.0000   0.0000   0.0000   0.0000
     0.0000   0.0000   0.0000   0.0000   0.0000   0.0000   0.0000   0.0000
     0.0000   0.0000   0.0000   0.0000

          k = 0.0000 0.0000 1.6667 (  1162 PWs)   bands (ev):

    -5.3955   4.0275   4.8578   4.8578   7.7241  10.2869  10.3809  10.3809
    12.5894  14.3399  15.5697  18.0369  18.0369  18.5596  24.1556  25.2734
    25.2734  26.5406  27.4560  29.3980

     occupation numbers 
     1.0000   1.0000   1.0000   1.0000   0.0000   0.0000   0.0000   0.0000
     0.0000   0.0000   0.0000   0.0000   0.0000   0.0000   0.0000   0.0000
     0.0000   0.0000   0.0000   0.0000

          k =-0.1667 0.1667 1.5000 (  1151 PWs)   bands (ev):

    -4.5784   1.6304   4.0545   4.3036   7.9786  10.0731  10.5337  11.1090
    15.0445  15.1213  16.3063  18.7336  19.6761  21.1380  21.9906  22.8820
    25.6024  26.4249  27.4042  29.0193

     occupation numbers 
     1.0000   1.0000   1.0000   1.0000   0.0000   0.0000   0.0000   0.0000
     0.0000   0.0000   0.0000   0.0000   0.0000   0.0000   0.0000   0.0000
     0.0000   0.0000   0.0000   0.0000

          k =-0.3333 0.3333 1.3333 (  1153 PWs)   bands (ev):

    -3.3777  -0.5495   3.2680   4.2737   8.0535  10.1178  10.6622  12.4119
    15.3410  16.4811  17.6740  17.8292  18.4977  21.9727  23.6574  24.9045
    25.9369  26.3102  26.9045  28.4760

     occupation numbers 
     1.0000   1.0000   1.0000   1.0000   0.0000   0.0000   0.0000   0.0000
     0.0000   0.0000   0.0000   0.0000   0.0000   0.0000   0.0000   0.0000
     0.0000   0.0000   0.0000   0.0000

          k =-0.5000 0.5000 1.1667 (  1156 PWs)   bands (ev):

    -3.7668   0.0545   2.9941   4.7543   8.4680  10.1188  10.2719  13.2409
    13.3650  15.3433  17.3811  18.6988  20.7720  21.3210  22.0939  23.7678
    25.7464  27.4734  27.9510  28.6426

     occupation numbers 
     1.0000   1.0000   1.0000   1.0000   0.0000   0.0000   0.0000   0.0000
     0.0000   0.0000   0.0000   0.0000   0.0000   0.0000   0.0000   0.0000
     0.0000   0.0000   0.0000   0.0000

          k =-0.6667 0.6667 1.0000 (  1147 PWs)   bands (ev):

    -4.9290   2.3501   3.6269   5.4880   9.0656   9.6026   9.8469  11.6358
    12.1571  15.3489  16.3398  17.4275  19.2888  21.5091  21.9387  24.4660
    26.3387  26.4935  26.9352  28.0695

     occupation numbers 
     1.0000   1.0000   1.0000   1.0000   0.0000   0.0000   0.0000   0.0000
     0.0000   0.0000   0.0000   0.0000   0.0000   0.0000   0.0000   0.0000
     0.0000   0.0000   0.0000   0.0000

          k =-0.8333 0.8333 0.8333 (  1167 PWs)   bands (ev):

    -5.5184   3.6750   5.6018   5.6018   8.3636   9.2552   9.2552  11.3919
    13.1486  13.1486  14.9157  16.5470  19.0870  19.0870  23.0860  25.7890
    25.7890  26.2393  29.5128  29.5128

     occupation numbers 
     1.0000   1.0000   1.0000   1.0000   0.0000   0.0000   0.0000   0.0000
     0.0000   0.0000   0.0000   0.0000   0.0000   0.0000   0.0000   0.0000
     0.0000   0.0000   0.0000   0.0000

     highest occupied, lowest unoccupied level (ev):     6.0520    6.7082

!    total energy              =     -15.85125715 Ry
     estimated scf accuracy    <       0.00000015 Ry

     The total energy is the sum of the following terms:
     one-electron contribution =       4.65166513 Ry
     hartree contribution      =       1.09770815 Ry
     xc contribution           =      -4.79970082 Ry
     ewald contribution        =     -16.80092960 Ry

     convergence has been achieved in   4 iterations

     Writing all to output data dir ./tmp/silicon.save/

     init_run     :      4.14s CPU      4.26s WALL (       1 calls)
     electrons    :     64.49s CPU     66.53s WALL (       1 calls)

     Called by init_run:
     wfcinit      :      4.02s CPU      4.10s WALL (       1 calls)
     wfcinit:atom :      0.02s CPU      0.02s WALL (     216 calls)
     wfcinit:wfcr :      3.87s CPU      3.95s WALL (     216 calls)
     potinit      :      0.00s CPU      0.00s WALL (       1 calls)
     hinit0       :      0.11s CPU      0.11s WALL (       1 calls)

     Called by electrons:
     c_bands      :     59.54s CPU     61.49s WALL (       5 calls)
     sum_band     :      4.92s CPU      4.95s WALL (       5 calls)
     v_of_rho     :      0.00s CPU      0.00s WALL (       5 calls)
     v_h          :      0.00s CPU      0.00s WALL (       5 calls)
     v_xc         :      0.00s CPU      0.00s WALL (       5 calls)
     mix_rho      :      0.00s CPU      0.00s WALL (       5 calls)

     Called by c_bands:
     init_us_2    :      0.31s CPU      0.31s WALL (    2376 calls)
     init_us_2:cp :      0.30s CPU      0.30s WALL (    2376 calls)
     cegterg      :     58.82s CPU     60.76s WALL (    1080 calls)

     Called by sum_band:
     sum_band:wei :      0.00s CPU      0.00s WALL (       5 calls)
     sum_band:loo :      4.92s CPU      4.95s WALL (       5 calls)
     sum_band:buf :      0.04s CPU      0.04s WALL (    1080 calls)
     sum_band:ini :      0.14s CPU      0.14s WALL (    1080 calls)

     Called by *egterg:
     cdiaghg      :      3.64s CPU      3.64s WALL (    4530 calls)
     cegterg:over :      5.09s CPU      5.10s WALL (    3666 calls)
     cegterg:upda :      2.17s CPU      2.19s WALL (    3666 calls)
     cegterg:last :      3.39s CPU      3.39s WALL (    2342 calls)
     h_psi        :     44.49s CPU     45.62s WALL (    4962 calls)
     g_psi        :      0.25s CPU      0.25s WALL (    3666 calls)

     Called by h_psi:
     h_psi:calbec :      1.46s CPU      1.47s WALL (    4962 calls)
     vloc_psi     :     42.00s CPU     43.13s WALL (    4962 calls)
     add_vuspsi   :      0.67s CPU      0.66s WALL (    4962 calls)

     General routines
     calbec       :      1.45s CPU      1.45s WALL (    4962 calls)
     fft          :      0.11s CPU      0.10s WALL (      15 calls)
     ffts         :      0.00s CPU      0.00s WALL (       5 calls)
     fftw         :     38.89s CPU     40.04s WALL (  148358 calls)

     Parallel routines

     PWSCF        :   1m 9.04s CPU   1m11.71s WALL


   This run was terminated on:   5:56:29   1Jan2025            

=------------------------------------------------------------------------------=
   JOB DONE.
=------------------------------------------------------------------------------=
