
     Program PWSCF v.7.4.1 starts on  8Sep2025 at  1:56: 0 

     This program is part of the open-source Quantum ESPRESSO suite
     for quantum simulation of materials; please cite
         "P. Giannozzi et al., J. Phys.:Condens. Matter 21 395502 (2009);
         "P. Giannozzi et al., J. Phys.:Condens. Matter 29 465901 (2017);
         "P. Giannozzi et al., J. Chem. Phys. 152 154105 (2020);
          URL http://www.quantum-espresso.org", 
     in publications or presentations arising from this work. More details at
     http://www.quantum-espresso.org/quote

     Parallel version (MPI), running on     1 processors

     MPI processes distributed on     1 nodes
     3296 MiB available memory on the printing compute node when the environment starts

     Waiting for input...
     Reading input from standard input

     Current dimensions of program PWSCF are:
     Max number of different atomic species (ntypx) = 10
     Max number of k-points (npk) =  40000
     Max angular momentum in pseudopotentials (lmaxx) =  4

     Subspace diagonalization in iterative solution of the eigenvalue problem:
     a serial algorithm will be used


     G-vector sticks info
     --------------------
     sticks:   dense  smooth     PW     G-vecs:    dense   smooth      PW
     Sum         433     433    139                 5961     5961    1067

     Using Slab Decomposition



     bravais-lattice index     =            2
     lattice parameter (alat)  =      10.2000  a.u.
     unit-cell volume          =     265.3020 (a.u.)^3
     number of atoms/cell      =            2
     number of atomic types    =            1
     number of electrons       =         8.00
     number of Kohn-Sham states=            4
     kinetic-energy cutoff     =      30.0000  Ry
     charge density cutoff     =     120.0000  Ry
     scf convergence threshold =      1.0E-06
     mixing beta               =       0.7000
     number of iterations used =            8  plain     mixing
     Exchange-correlation= SLA  PZ   NOGX NOGC
                           (   1   1   0   0   0   0   0)

     celldm(1)=  10.200000  celldm(2)=   0.000000  celldm(3)=   0.000000
     celldm(4)=   0.000000  celldm(5)=   0.000000  celldm(6)=   0.000000

     crystal axes: (cart. coord. in units of alat)
               a(1) = (  -0.500000   0.000000   0.500000 )  
               a(2) = (   0.000000   0.500000   0.500000 )  
               a(3) = (  -0.500000   0.500000   0.000000 )  

     reciprocal axes: (cart. coord. in units 2 pi/alat)
               b(1) = ( -1.000000 -1.000000  1.000000 )  
               b(2) = (  1.000000  1.000000  1.000000 )  
               b(3) = ( -1.000000  1.000000 -1.000000 )  


     PseudoPot. # 1 for Si read from file:
     ./pseudo/Si.pz-vbc.UPF
     MD5 check sum: 9f25e6ff280f3123e9b3a84715b2e9c9
     Pseudo is Norm-conserving, Zval =  4.0
     Generated by new atomic code, or converted to UPF format
     Using radial grid of  431 points,  2 beta functions with: 
                l(1) =   0
                l(2) =   1

     atomic species   valence    mass     pseudopotential
     Si                4.00    28.08600     Si( 1.00)

     48 Sym. Ops., with inversion, found (24 have fractional translation)



   Cartesian axes

     site n.     atom                  positions (alat units)
         1        Si     tau(   1) = (   0.0000000   0.0000000   0.0000000  )
         2        Si     tau(   2) = (  -0.2500000   0.2500000   0.2500000  )

     number of k points=     8
                       cart. coord. in units 2pi/alat
        k(    1) = (   0.0000000   0.0000000   0.0000000), wk =   0.0312500
        k(    2) = (  -0.2500000   0.2500000  -0.2500000), wk =   0.2500000
        k(    3) = (   0.5000000  -0.5000000   0.5000000), wk =   0.1250000
        k(    4) = (   0.0000000   0.5000000   0.0000000), wk =   0.1875000
        k(    5) = (   0.7500000  -0.2500000   0.7500000), wk =   0.7500000
        k(    6) = (   0.5000000   0.0000000   0.5000000), wk =   0.3750000
        k(    7) = (   0.0000000  -1.0000000   0.0000000), wk =   0.0937500
        k(    8) = (  -0.5000000  -1.0000000   0.0000000), wk =   0.1875000

     Dense  grid:     5961 G-vectors     FFT dimensions: (  32,  32,  32)

     Estimated max dynamical RAM per process >       5.48 MB

     Initial potential from superposition of free atoms

     starting charge       7.9990, renormalised to       8.0000
     Starting wfcs are    8 randomized atomic wfcs

     total cpu time spent up to now is        0.3 secs

     Self-consistent Calculation

     iteration #  1     ecut=    30.00 Ry     beta= 0.70
     Davidson diagonalization with overlap
     ethr =  1.00E-02,  avg # of iterations =  2.0

     Threshold (ethr) on eigenvalues was too large:
     Diagonalizing with lowered threshold

     Davidson diagonalization with overlap
     ethr =  7.60E-04,  avg # of iterations =  1.0

     total cpu time spent up to now is        0.3 secs

     total energy              =     -15.83430131 Ry
     estimated scf accuracy    <       0.06719930 Ry

     iteration #  2     ecut=    30.00 Ry     beta= 0.70
     Davidson diagonalization with overlap
     ethr =  8.40E-04,  avg # of iterations =  1.0

     total cpu time spent up to now is        0.3 secs

     total energy              =     -15.83772480 Ry
     estimated scf accuracy    <       0.00245314 Ry

     iteration #  3     ecut=    30.00 Ry     beta= 0.70
     Davidson diagonalization with overlap
     ethr =  3.07E-05,  avg # of iterations =  2.0

     total cpu time spent up to now is        0.4 secs

     total energy              =     -15.83811403 Ry
     estimated scf accuracy    <       0.00006863 Ry

     iteration #  4     ecut=    30.00 Ry     beta= 0.70
     Davidson diagonalization with overlap
     ethr =  8.58E-07,  avg # of iterations =  2.4

     total cpu time spent up to now is        0.4 secs

     End of self-consistent calculation

          k = 0.0000 0.0000 0.0000 (   725 PWs)   bands (ev):

    -5.7908   6.2719   6.2719   6.2719

          k =-0.2500 0.2500-0.2500 (   745 PWs)   bands (ev):

    -4.9763   2.3100   5.4975   5.4975

          k = 0.5000-0.5000 0.5000 (   754 PWs)   bands (ev):

    -3.3946  -0.8021   5.0534   5.0534

          k = 0.0000 0.5000 0.0000 (   729 PWs)   bands (ev):

    -4.6903   2.7824   4.3384   4.3384

          k = 0.7500-0.2500 0.7500 (   735 PWs)   bands (ev):

    -3.0148  -0.1441   2.6523   4.0192

          k = 0.5000 0.0000 0.5000 (   742 PWs)   bands (ev):

    -3.7053   0.7783   2.4152   4.9185

          k = 0.0000-1.0000 0.0000 (   740 PWs)   bands (ev):

    -1.5734  -1.5734   3.3572   3.3572

          k =-0.5000-1.0000 0.0000 (   724 PWs)   bands (ev):

    -1.3931  -1.3931   2.3032   2.3032

     highest occupied level (ev):     6.2719

!    total energy              =     -15.83814126 Ry
     estimated scf accuracy    <       0.00000052 Ry

     The total energy is the sum of the following terms:
     one-electron contribution =       4.78619517 Ry
     hartree contribution      =       1.10223756 Ry
     xc contribution           =      -4.82681539 Ry
     ewald contribution        =     -16.89975860 Ry

     convergence has been achieved in   4 iterations

     Writing all to output data dir ./output/pwscf.save/ :
     XML data file, charge density, pseudopotentials, collected wavefunctions

     init_run     :      0.22s CPU      0.24s WALL (       1 calls)
     electrons    :      0.12s CPU      0.13s WALL (       1 calls)

     Called by init_run:
     wfcinit      :      0.10s CPU      0.11s WALL (       1 calls)
     potinit      :      0.01s CPU      0.01s WALL (       1 calls)
     hinit0       :      0.11s CPU      0.12s WALL (       1 calls)

     Called by electrons:
     c_bands      :      0.09s CPU      0.10s WALL (       5 calls)
     sum_band     :      0.01s CPU      0.02s WALL (       5 calls)
     v_of_rho     :      0.00s CPU      0.01s WALL (       5 calls)
     mix_rho      :      0.00s CPU      0.00s WALL (       5 calls)

     Called by c_bands:
     init_us_2    :      0.00s CPU      0.01s WALL (      88 calls)
     cegterg      :      0.09s CPU      0.10s WALL (      40 calls)

     Called by *egterg:
     cdiaghg      :      0.00s CPU      0.01s WALL (      99 calls)
     h_psi        :      0.17s CPU      0.18s WALL (     115 calls)
     g_psi        :      0.00s CPU      0.00s WALL (      67 calls)

     Called by h_psi:
     h_psi:calbec :      0.00s CPU      0.00s WALL (     115 calls)
     vloc_psi     :      0.16s CPU      0.17s WALL (     115 calls)
     add_vuspsi   :      0.00s CPU      0.00s WALL (     115 calls)

     General routines
     calbec       :      0.00s CPU      0.00s WALL (     115 calls)
     fft          :      0.10s CPU      0.10s WALL (      15 calls)
     ffts         :      0.00s CPU      0.00s WALL (       5 calls)
     fftw         :      0.15s CPU      0.16s WALL (    1106 calls)

     Parallel routines

     PWSCF        :      0.35s CPU      0.41s WALL


   This run was terminated on:   1:56: 0   8Sep2025            

=------------------------------------------------------------------------------=
   JOB DONE.
=------------------------------------------------------------------------------=
